
     Program PWSCF v.6.7MaX starts on 17Jun2023 at 22:51:45 

     This program is part of the open-source Quantum ESPRESSO suite
     for quantum simulation of materials; please cite
         "P. Giannozzi et al., J. Phys.:Condens. Matter 21 395502 (2009);
         "P. Giannozzi et al., J. Phys.:Condens. Matter 29 465901 (2017);
          URL http://www.quantum-espresso.org", 
     in publications or presentations arising from this work. More details at
     http://www.quantum-espresso.org/quote

     Parallel version (MPI), running on     4 processors

     MPI processes distributed on     1 nodes
     R & G space division:  proc/nbgrp/npool/nimage =       4
     Waiting for input...
     Reading input from standard input

     Current dimensions of program PWSCF are:
     Max number of different atomic species (ntypx) = 10
     Max number of k-points (npk) =  40000
     Max angular momentum in pseudopotentials (lmaxx) =  3
     file C.pbe-n-kjpaw_psl.1.0.0.UPF: wavefunction(s)  2S 2P renormalized

     IMPORTANT: XC functional enforced from input :
     Exchange-correlation= VDW-DF2-B86R
                           (   1   4  26   0   2   0   0)
     Any further DFT definition will be discarded
     Please, verify this is what you really want


     Subspace diagonalization in iterative solution of the eigenvalue problem:
     one sub-group per band group will be used
     scalapack distributed-memory algorithm (size of sub-group:  2*  2 procs)

     Message from routine setup:
     using ibrav=0 with symmetry is DISCOURAGED, use correct ibrav instead

     Parallelization info
     --------------------
     sticks:   dense  smooth     PW     G-vecs:    dense   smooth      PW
     Min         136      65     21                 8014     2813     527
     Max         137      67     22                 8021     2821     538
     Sum         547     265     85                32075    11271    2123



     bravais-lattice index     =            0
     lattice parameter (alat)  =       4.6625  a.u.
     unit-cell volume          =     277.6091 (a.u.)^3
     number of atoms/cell      =            4
     number of atomic types    =            1
     number of electrons       =        16.00
     number of Kohn-Sham states=           12
     kinetic-energy cutoff     =      45.0000  Ry
     charge density cutoff     =     360.0000  Ry
     scf convergence threshold =      1.0E-06
     mixing beta               =       0.7000
     number of iterations used =            8  plain     mixing
     energy convergence thresh.=      1.0E-04
     force convergence thresh. =      1.0E-03
     press convergence thresh. =      5.0E-01
     Exchange-correlation= VDW-DF2-B86R
                           (   1   4  26   0   2   0   0)
     nstep                     =           50


     celldm(1)=   4.662504  celldm(2)=   0.000000  celldm(3)=   0.000000
     celldm(4)=   0.000000  celldm(5)=   0.000000  celldm(6)=   0.000000

     crystal axes: (cart. coord. in units of alat)
               a(1) = (   1.000000   0.000000   0.000000 )  
               a(2) = (  -0.500000   0.866026   0.000000 )  
               a(3) = (   0.000000   0.000000   3.162607 )  

     reciprocal axes: (cart. coord. in units 2 pi/alat)
               b(1) = (  1.000000  0.577350 -0.000000 )  
               b(2) = (  0.000000  1.154700  0.000000 )  
               b(3) = (  0.000000 -0.000000  0.316195 )  


     PseudoPot. # 1 for C  read from file:
     /home/zinnia7/espresso/pseudo/C.pbe-n-kjpaw_psl.1.0.0.UPF
     MD5 check sum: 5d2aebdfa2cae82b50a7e79e9516da0f
     Pseudo is Projector augmented-wave + core cor, Zval =  4.0
     Generated using "atomic" code by A. Dal Corso  v.5.1
     Shape of augmentation charge: PSQ
     Using radial grid of 1073 points,  4 beta functions with: 
                l(1) =   0
                l(2) =   0
                l(3) =   1
                l(4) =   1
     Q(r) pseudized with 0 coefficients 


     atomic species   valence    mass     pseudopotential
        C              4.00    12.01100     C ( 1.00)

     24 Sym. Ops., with inversion, found (12 have fractional translation)



   Cartesian axes

     site n.     atom                  positions (alat units)
         1           C   tau(   1) = (   0.0000000   0.0000000   0.7906518  )
         2           C   tau(   2) = (   0.0000000   0.0000000   2.3719557  )
         3           C   tau(   3) = (  -0.0000000   0.5773502   0.7906518  )
         4           C   tau(   4) = (   0.5000002   0.2886753   2.3719557  )

     number of k points=    57  Gaussian smearing, width (Ry)=  0.0100
                       cart. coord. in units 2pi/alat
        k(    1) = (   0.0000000   0.0000000   0.0000000), wk =   0.0034722
        k(    2) = (   0.0000000   0.0000000   0.0790487), wk =   0.0069444
        k(    3) = (   0.0000000   0.0000000  -0.1580974), wk =   0.0034722
        k(    4) = (   0.0000000   0.0962250   0.0000000), wk =   0.0208333
        k(    5) = (   0.0000000   0.0962250   0.0790487), wk =   0.0416667
        k(    6) = (   0.0000000   0.0962250  -0.1580974), wk =   0.0208333
        k(    7) = (   0.0000000   0.1924501   0.0000000), wk =   0.0208333
        k(    8) = (   0.0000000   0.1924501   0.0790487), wk =   0.0416667
        k(    9) = (   0.0000000   0.1924501  -0.1580974), wk =   0.0208333
        k(   10) = (   0.0000000   0.2886751   0.0000000), wk =   0.0208333
        k(   11) = (   0.0000000   0.2886751   0.0790487), wk =   0.0416667
        k(   12) = (   0.0000000   0.2886751  -0.1580974), wk =   0.0208333
        k(   13) = (   0.0000000   0.3849001   0.0000000), wk =   0.0208333
        k(   14) = (   0.0000000   0.3849001   0.0790487), wk =   0.0416667
        k(   15) = (   0.0000000   0.3849001  -0.1580974), wk =   0.0208333
        k(   16) = (   0.0000000   0.4811252   0.0000000), wk =   0.0208333
        k(   17) = (   0.0000000   0.4811252   0.0790487), wk =   0.0416667
        k(   18) = (   0.0000000   0.4811252  -0.1580974), wk =   0.0208333
        k(   19) = (   0.0000000  -0.5773502   0.0000000), wk =   0.0104167
        k(   20) = (   0.0000000  -0.5773502   0.0790487), wk =   0.0208333
        k(   21) = (   0.0000000  -0.5773502  -0.1580974), wk =   0.0104167
        k(   22) = (   0.0833333   0.1443376   0.0000000), wk =   0.0208333
        k(   23) = (   0.0833333   0.1443376   0.0790487), wk =   0.0416667
        k(   24) = (   0.0833333   0.1443376  -0.1580974), wk =   0.0208333
        k(   25) = (   0.0833333   0.2405626   0.0000000), wk =   0.0416667
        k(   26) = (   0.0833333   0.2405626   0.0790487), wk =   0.0833333
        k(   27) = (   0.0833333   0.2405626  -0.1580974), wk =   0.0416667
        k(   28) = (   0.0833333   0.3367876   0.0000000), wk =   0.0416667
        k(   29) = (   0.0833333   0.3367876   0.0790487), wk =   0.0833333
        k(   30) = (   0.0833333   0.3367876  -0.1580974), wk =   0.0416667
        k(   31) = (   0.0833333   0.4330127   0.0000000), wk =   0.0416667
        k(   32) = (   0.0833333   0.4330127   0.0790487), wk =   0.0833333
        k(   33) = (   0.0833333   0.4330127  -0.1580974), wk =   0.0416667
        k(   34) = (   0.0833333   0.5292377   0.0000000), wk =   0.0416667
        k(   35) = (   0.0833333   0.5292377   0.0790487), wk =   0.0833333
        k(   36) = (   0.0833333   0.5292377  -0.1580974), wk =   0.0416667
        k(   37) = (   0.1666667   0.2886751   0.0000000), wk =   0.0208333
        k(   38) = (   0.1666667   0.2886751   0.0790487), wk =   0.0416667
        k(   39) = (   0.1666667   0.2886751  -0.1580974), wk =   0.0208333
        k(   40) = (   0.1666667   0.3849002   0.0000000), wk =   0.0416667
        k(   41) = (   0.1666667   0.3849002   0.0790487), wk =   0.0833333
        k(   42) = (   0.1666667   0.3849002  -0.1580974), wk =   0.0416667
        k(   43) = (   0.1666667   0.4811252   0.0000000), wk =   0.0416667
        k(   44) = (   0.1666667   0.4811252   0.0790487), wk =   0.0833333
        k(   45) = (   0.1666667   0.4811252  -0.1580974), wk =   0.0416667
        k(   46) = (   0.1666667   0.5773502   0.0000000), wk =   0.0208333
        k(   47) = (   0.1666667   0.5773502   0.0790487), wk =   0.0416667
        k(   48) = (   0.1666667   0.5773502  -0.1580974), wk =   0.0208333
        k(   49) = (   0.2500000   0.4330127   0.0000000), wk =   0.0208333
        k(   50) = (   0.2500000   0.4330127   0.0790487), wk =   0.0416667
        k(   51) = (   0.2500000   0.4330127  -0.1580974), wk =   0.0208333
        k(   52) = (   0.2500000   0.5292377   0.0000000), wk =   0.0416667
        k(   53) = (   0.2500000   0.5292377   0.0790487), wk =   0.0833333
        k(   54) = (   0.2500000   0.5292377  -0.1580974), wk =   0.0416667
        k(   55) = (   0.3333333   0.5773503   0.0000000), wk =   0.0069444
        k(   56) = (   0.3333333   0.5773503   0.0790487), wk =   0.0138889
        k(   57) = (   0.3333333   0.5773503  -0.1580974), wk =   0.0069444

     Dense  grid:    32075 G-vectors     FFT dimensions: (  30,  30,  90)

     Smooth grid:    11271 G-vectors     FFT dimensions: (  20,  20,  64)

     Estimated max dynamical RAM per process >      16.06 MB

     Estimated total dynamical RAM >      64.23 MB

     Check: negative core charge=   -0.000011

     Initial potential from superposition of free atoms

     starting charge   15.99983, renormalised to   16.00000


     %%%%%%%%%%%%%%%%%%%%%%%%%%%%%%%%%%%%%%%%%%%%%%%%%%%%%%%%%%%%%%%%%%%%%%%%
     %                                                                      %
     % You are using vdW-DF, which was implemented by the Thonhauser group. %
     % Please cite the following two papers that made this development      %
     % possible and the two reviews that describe the various versions:     %
     %                                                                      %
     %   T. Thonhauser et al., PRL 115, 136402 (2015).                      %
     %   T. Thonhauser et al., PRB 76, 125112 (2007).                       %
     %   K. Berland et al., Rep. Prog. Phys. 78, 066501 (2015).             %
     %   D.C. Langreth et al., J. Phys.: Condens. Matter 21, 084203 (2009). %
     %                                                                      %
     %                                                                      %
     % If you are calculating the stress with vdW-DF, please also cite:     %
     %                                                                      %
     %   R. Sabatini et al., J. Phys.: Condens. Matter 24, 424209 (2012).   %
     %                                                                      %
     %%%%%%%%%%%%%%%%%%%%%%%%%%%%%%%%%%%%%%%%%%%%%%%%%%%%%%%%%%%%%%%%%%%%%%%%


     Starting wfcs are   16 randomized atomic wfcs
     Checking if some PAW data can be deallocated... 

     total cpu time spent up to now is       77.7 secs

     Self-consistent Calculation

     iteration #  1     ecut=    45.00 Ry     beta= 0.70
     Davidson diagonalization with overlap
     ethr =  1.00E-02,  avg # of iterations =  3.0

     total cpu time spent up to now is       79.3 secs

     total energy              =     -73.56688432 Ry
     estimated scf accuracy    <       0.37824978 Ry

     iteration #  2     ecut=    45.00 Ry     beta= 0.70
     Davidson diagonalization with overlap
     ethr =  2.36E-03,  avg # of iterations =  2.8

     total cpu time spent up to now is       80.7 secs

     total energy              =     -73.62066469 Ry
     estimated scf accuracy    <       0.00490316 Ry

     iteration #  3     ecut=    45.00 Ry     beta= 0.70
     Davidson diagonalization with overlap
     ethr =  3.06E-05,  avg # of iterations =  6.3

     total cpu time spent up to now is       82.4 secs

     total energy              =     -73.62110435 Ry
     estimated scf accuracy    <       0.00036473 Ry

     iteration #  4     ecut=    45.00 Ry     beta= 0.70
     Davidson diagonalization with overlap
     c_bands:  1 eigenvalues not converged
     ethr =  2.28E-06,  avg # of iterations =  4.6

     total cpu time spent up to now is       83.9 secs

     total energy              =     -73.62112169 Ry
     estimated scf accuracy    <       0.00000348 Ry

     iteration #  5     ecut=    45.00 Ry     beta= 0.70
     Davidson diagonalization with overlap
     ethr =  2.18E-08,  avg # of iterations =  2.9

     total cpu time spent up to now is       85.4 secs

     End of self-consistent calculation

          k = 0.0000 0.0000 0.0000 (  1375 PWs)   bands (ev):

   -14.1539 -14.0646  -2.7419  -1.8309   2.2315   2.2315   2.2349   2.2350
     8.2455  13.6607  13.6608  13.6739

          k = 0.0000 0.0000 0.0790 (  1387 PWs)   bands (ev):

   -14.1411 -14.0779  -2.6227  -1.9813   2.2320   2.2320   2.2344   2.2345
     8.7044  11.5192  13.6625  13.6627

          k = 0.0000 0.0000-0.1581 (  1364 PWs)   bands (ev):

   -14.1097 -14.1097  -2.3173  -2.3173   2.2332   2.2332   2.2333   2.2333
     9.9315   9.9315  13.6672  13.6673

          k = 0.0000 0.0962 0.0000 (  1403 PWs)   bands (ev):

   -13.9902 -13.9019  -2.5427  -1.6389   1.5889   1.5959   1.8961   1.9018
     8.4561  12.6441  13.7181  13.7492

          k = 0.0000 0.0962 0.0790 (  1392 PWs)   bands (ev):

   -13.9775 -13.9151  -2.4244  -1.7880   1.5899   1.5949   1.8970   1.9010
     8.9124  11.7101  13.7288  13.7465

          k = 0.0000 0.0962-0.1581 (  1378 PWs)   bands (ev):

   -13.9465 -13.9465  -2.1213  -2.1213   1.5924   1.5924   1.8990   1.8990
    10.1323  10.1323  13.7388  13.7395

          k = 0.0000 0.1925 0.0000 (  1405 PWs)   bands (ev):

   -13.5008 -13.4157  -1.9498  -1.0686  -0.0320  -0.0173   1.1105   1.1188
     9.0886  13.1790  13.6539  13.7231

          k = 0.0000 0.1925 0.0790 (  1400 PWs)   bands (ev):

   -13.4886 -13.4284  -1.8342  -1.2136  -0.0298  -0.0195   1.1117   1.1176
     9.5362  12.2701  13.6806  13.7177

          k = 0.0000 0.1925-0.1581 (  1400 PWs)   bands (ev):

   -13.4587 -13.4587  -1.5382  -1.5382  -0.0246  -0.0246   1.1146   1.1146
    10.7315  10.7316  13.7007  13.7007

          k = 0.0000 0.2887 0.0000 (  1407 PWs)   bands (ev):

   -12.6917 -12.6118  -2.1139  -2.0897  -0.9804  -0.1414   0.2370   0.2470
    10.1406  12.4039  12.6233  13.3708

          k = 0.0000 0.2887 0.0790 (  1402 PWs)   bands (ev):

   -12.6802 -12.6237  -2.1104  -2.0933  -0.8697  -0.2786   0.2384   0.2455
    10.5646  12.4204  12.5537  13.2433

          k = 0.0000 0.2887-0.1581 (  1410 PWs)   bands (ev):

   -12.6521 -12.6521  -2.1018  -2.1018  -0.5872  -0.5871   0.2420   0.2420
    11.6621  11.6622  12.6167  12.6167

          k = 0.0000 0.3849 0.0000 (  1414 PWs)   bands (ev):

   -11.5752 -11.5024  -4.3038  -4.2696  -0.4920  -0.4810   0.3213   1.0862
    10.0349  10.4055  11.5993  13.0412

          k = 0.0000 0.3849 0.0790 (  1407 PWs)   bands (ev):

   -11.5648 -11.5132  -4.2988  -4.2746  -0.4904  -0.4826   0.4234   0.9626
    10.0713  10.3365  12.0288  13.0490

          k = 0.0000 0.3849-0.1581 (  1410 PWs)   bands (ev):

   -11.5392 -11.5392  -4.2867  -4.2867  -0.4865  -0.4865   0.6824   0.6824
    10.1903  10.1903  12.9521  12.9521

          k = 0.0000 0.4811 0.0000 (  1414 PWs)   bands (ev):

   -10.1823 -10.1188  -6.3934  -6.3501  -0.9624  -0.9509   1.8159   2.4230
     7.8660   8.3157  12.7879  12.8970

          k = 0.0000 0.4811 0.0790 (  1411 PWs)   bands (ev):

   -10.1732 -10.1283  -6.3871  -6.3565  -0.9607  -0.9526   1.8998   2.3287
     7.9160   8.2345  12.8079  12.8867

          k = 0.0000 0.4811-0.1581 (  1410 PWs)   bands (ev):

   -10.1508 -10.1508  -6.3719  -6.3719  -0.9566  -0.9566   2.1090   2.1090
     8.0601   8.0601  12.8499  12.8499

          k = 0.0000-0.5774 0.0000 (  1424 PWs)   bands (ev):

    -8.9094  -8.8788  -7.8804  -7.8564  -1.1239  -1.1123   2.8036   3.0959
     6.8227   7.1932  12.7088  12.8352

          k = 0.0000-0.5774 0.0790 (  1414 PWs)   bands (ev):

    -8.9047  -8.8831  -7.8773  -7.8603  -1.1222  -1.1140   2.8508   3.0584
     6.8517   7.1140  12.7271  12.8164

          k = 0.0000-0.5774-0.1581 (  1420 PWs)   bands (ev):

    -8.8937  -8.8937  -7.8692  -7.8692  -1.1181  -1.1181   2.9594   2.9594
     6.9580   6.9580  12.7714  12.7714

          k = 0.0833 0.1443 0.0000 (  1401 PWs)   bands (ev):

   -13.6636 -13.5774  -2.1466  -1.2576   0.5680   0.5750   1.2277   1.2325
     8.8782  13.0104  13.9983  14.0539

          k = 0.0833 0.1443 0.0790 (  1403 PWs)   bands (ev):

   -13.6512 -13.5903  -2.0300  -1.4040   0.5690   0.5740   1.2283   1.2318
     9.3289  12.0893  14.0205  14.0490

          k = 0.0833 0.1443-0.1581 (  1404 PWs)   bands (ev):

   -13.6210 -13.6210  -1.7316  -1.7316   0.5715   0.5715   1.2300   1.2301
    10.5337  10.5337  14.0371  14.0372

          k = 0.0833 0.2406 0.0000 (  1412 PWs)   bands (ev):

   -13.0144 -12.9324  -1.3644  -1.1277  -1.1116  -0.5075   0.2374   0.2470
     9.7220  13.2907  13.4060  13.7985

          k = 0.0833 0.2406 0.0790 (  1405 PWs)   bands (ev):

   -13.0026 -12.9446  -1.2517  -1.1253  -1.1139  -0.6479   0.2388   0.2456
    10.1594  12.8017  13.3290  13.4718

          k = 0.0833 0.2406-0.1581 (  1404 PWs)   bands (ev):

   -12.9738 -12.9738  -1.1197  -1.1197  -0.9633  -0.9633   0.2422   0.2422
    11.3258  11.3260  13.3876  13.3877

          k = 0.0833 0.3368 0.0000 (  1409 PWs)   bands (ev):

   -12.0515 -11.9756  -3.1871  -3.1597  -0.6438  -0.6307  -0.2235   0.5777
    10.9811  11.1005  11.3696  13.8876

          k = 0.0833 0.3368 0.0790 (  1408 PWs)   bands (ev):

   -12.0405 -11.9869  -3.1831  -3.1637  -0.6419  -0.6327  -0.1172   0.4474
    11.0852  11.3063  11.4705  13.7958

          k = 0.0833 0.3368-0.1581 (  1402 PWs)   bands (ev):

   -12.0139 -12.0139  -3.1734  -3.1734  -0.6373  -0.6373   0.1533   0.1533
    11.2011  11.2011  12.5555  12.5556

          k = 0.0833 0.4330 0.0000 (  1418 PWs)   bands (ev):

   -10.7939 -10.7260  -5.2984  -5.2605  -1.2755  -1.2607   1.2028   1.9015
     8.8375   9.2284  12.6351  13.6034

          k = 0.0833 0.4330 0.0790 (  1419 PWs)   bands (ev):

   -10.7841 -10.7361  -5.2929  -5.2661  -1.2733  -1.2629   1.2971   1.7900
     8.8838   9.1613  13.0198  13.6179

          k = 0.0833 0.4330-0.1581 (  1414 PWs)   bands (ev):

   -10.7603 -10.7603  -5.2795  -5.2795  -1.2681  -1.2681   1.5351   1.5351
     9.0126   9.0126  13.6120  13.6123

          k = 0.0833 0.5292 0.0000 (  1418 PWs)   bands (ev):

    -9.3161  -9.2613  -7.2294  -7.1859  -1.6023  -1.5869   2.6279   3.0709
     7.0848   7.4699  13.4268  13.5667

          k = 0.0833 0.5292 0.0790 (  1421 PWs)   bands (ev):

    -9.3082  -9.2694  -7.2232  -7.1924  -1.6001  -1.5892   2.6929   3.0067
     7.1224   7.3955  13.4472  13.5460

          k = 0.0833 0.5292-0.1581 (  1422 PWs)   bands (ev):

    -9.2889  -9.2889  -7.2079  -7.2079  -1.5946  -1.5946   2.8502   2.8502
     7.2408   7.2408  13.4963  13.4963

          k = 0.1667 0.2887 0.0000 (  1415 PWs)   bands (ev):

   -12.2114 -12.1345  -2.4450  -2.4321  -1.1091  -1.0997  -0.4075   0.4052
    10.7745  11.5892  11.7668  14.5102

          k = 0.1667 0.2887 0.0790 (  1409 PWs)   bands (ev):

   -12.2002 -12.1459  -2.4431  -2.4340  -1.1077  -1.1011  -0.2999   0.2728
    11.1919  11.6148  11.7409  13.7083

          k = 0.1667 0.2887-0.1581 (  1416 PWs)   bands (ev):

   -12.1733 -12.1733  -2.4385  -2.4385  -1.1045  -1.1045  -0.0258  -0.0258
    11.6768  11.6768  12.3041  12.3042

          k = 0.1667 0.3849 0.0000 (  1421 PWs)   bands (ev):

   -11.1059 -11.0361  -4.1640  -4.1377  -2.1606  -2.1433   0.8792   1.6178
     9.6137   9.8624  12.2326  15.4727

          k = 0.1667 0.3849 0.0790 (  1421 PWs)   bands (ev):

   -11.0958 -11.0465  -4.1602  -4.1416  -2.1581  -2.1459   0.9780   1.4988
     9.6476   9.8242  12.6148  14.8053

          k = 0.1667 0.3849-0.1581 (  1418 PWs)   bands (ev):

   -11.0713 -11.0713  -4.1509  -4.1509  -2.1520  -2.1520   1.2285   1.2285
     9.7339   9.7339  13.6116  13.6118

          k = 0.1667 0.4811 0.0000 (  1420 PWs)   bands (ev):

    -9.7332  -9.6726  -6.0662  -6.0274  -2.7351  -2.7132   2.3722   2.9658
     7.6712   7.9969  14.0648  15.2537

          k = 0.1667 0.4811 0.0790 (  1424 PWs)   bands (ev):

    -9.7244  -9.6816  -6.0606  -6.0332  -2.7320  -2.7164   2.4541   2.8734
     7.7119   7.9430  14.3684  15.2647

          k = 0.1667 0.4811-0.1581 (  1426 PWs)   bands (ev):

    -9.7031  -9.7031  -6.0469  -6.0469  -2.7242  -2.7242   2.6585   2.6585
     7.8209   7.8209  15.0648  15.0653

          k = 0.1667 0.5774 0.0000 (  1423 PWs)   bands (ev):

    -8.4904  -8.4614  -7.4825  -7.4613  -2.9195  -2.8963   3.4024   3.6888
     6.6827   6.8827  15.1540  15.3910

          k = 0.1667 0.5774 0.0790 (  1420 PWs)   bands (ev):

    -8.4860  -8.4655  -7.4797  -7.4647  -2.9161  -2.8998   3.4492   3.6528
     6.6940   6.8370  15.1816  15.3461

          k = 0.1667 0.5774-0.1581 (  1432 PWs)   bands (ev):

    -8.4756  -8.4756  -7.4726  -7.4726  -2.9080  -2.9080   3.5563   3.5563
     6.7483   6.7483  15.2534  15.2534

          k = 0.2500 0.4330 0.0000 (  1429 PWs)   bands (ev):

    -9.8807  -9.8189  -5.1882  -5.1690  -3.6286  -3.6140   2.2672   2.9073
     8.0106   8.2464  13.8620  15.8999

          k = 0.2500 0.4330 0.0790 (  1425 PWs)   bands (ev):

    -9.8718  -9.8280  -5.1853  -5.1718  -3.6265  -3.6163   2.3542   2.8060
     8.0450   8.2115  14.1414  15.5427

          k = 0.2500 0.4330-0.1581 (  1426 PWs)   bands (ev):

    -9.8501  -9.8501  -5.1785  -5.1785  -3.6215  -3.6215   2.5730   2.5730
     8.1280   8.1280  14.8188  14.8189

          k = 0.2500 0.5292 0.0000 (  1425 PWs)   bands (ev):

    -8.4609  -8.4116  -6.6052  -6.5729  -4.3359  -4.3115   3.7417   4.1834
     6.5085   6.7305  15.7761  16.0423

          k = 0.2500 0.5292 0.0790 (  1433 PWs)   bands (ev):

    -8.4537  -8.4189  -6.6005  -6.5777  -4.3324  -4.3152   3.8059   4.1187
     6.5356   6.6929  15.6070  15.8019

          k = 0.2500 0.5292-0.1581 (  1442 PWs)   bands (ev):

    -8.4364  -8.4364  -6.5892  -6.5892  -4.3239  -4.3239   3.9620   3.9620
     6.6091   6.6091  15.5549  15.5549

          k = 0.3333 0.5774 0.0000 (  1443 PWs)   bands (ev):

    -7.2528  -7.2265  -7.2265  -7.2032  -5.2122  -5.2122   5.0536   5.3149
     5.3149   5.5959  15.8706  15.8707

          k = 0.3333 0.5774 0.0790 (  1434 PWs)   bands (ev):

    -7.2456  -7.2264  -7.2264  -7.2105  -5.2124  -5.2124   5.1279   5.3177
     5.3177   5.5108  15.5894  15.5895

          k = 0.3333 0.5774-0.1581 (  1434 PWs)   bands (ev):

    -7.2281  -7.2281  -7.2263  -7.2263  -5.2126  -5.2126   5.3140   5.3141
     5.3204   5.3204  15.3915  15.3915

     the Fermi energy is     5.3171 ev

!    total energy              =     -73.62112336 Ry

     total all-electron energy =      -304.677515 Ry
     estimated scf accuracy    <       0.00000048 Ry
     smearing contrib. (-TS)   =      -0.00020743 Ry
     internal energy E=F+TS    =     -73.62091593 Ry

     The total energy is F=E-TS. E is the sum of the following terms:
     one-electron contribution =     -22.94563508 Ry
     hartree contribution      =      18.89122939 Ry
     xc contribution           =     -18.61840155 Ry
     ewald contribution        =     -26.51210528 Ry
     one-center paw contrib.   =     -24.43600340 Ry

     convergence has been achieved in   5 iterations

     Forces acting on atoms (cartesian axes, Ry/au):

     atom    1 type  1   force =     0.00000000    0.00000000    0.00000000
     atom    2 type  1   force =     0.00000000    0.00000000    0.00000000
     atom    3 type  1   force =     0.00000000    0.00000000    0.00000000
     atom    4 type  1   force =     0.00000000    0.00000000    0.00000000

     Total force =     0.000000     Total SCF correction =     0.000000


     Computing stress (Cartesian axis) and pressure

          total   stress  (Ry/bohr**3)                   (kbar)     P=      -12.52
  -0.00004875  -0.00000000   0.00000000           -7.17       -0.00        0.00
  -0.00000000  -0.00004875   0.00000000           -0.00       -7.17        0.00
   0.00000000  -0.00000000  -0.00015780            0.00       -0.00      -23.21


     BFGS Geometry Optimization
     Energy error            =      0.0E+00
     Gradient error          =      2.0E-23
     Cell gradient error     =      1.6E-04


     number of scf cycles    =   1
     number of bfgs steps    =   0

     enthalpy new            =     -73.6211233611 Ry

     new trust radius        =       0.0131459239 bohr
     new conv_thr            =       0.0000010000 Ry

     new unit-cell volume =    275.84031 a.u.^3 (    40.87532 Ang^3 )
     density =      1.95176 g/cm^3

CELL_PARAMETERS (angstrom)
   2.464283792  -0.000000001   0.000000000
  -1.232142396   2.134132682  -0.000000000
   0.000000000   0.000000000   7.772290071

ATOMIC_POSITIONS (angstrom)
C             0.0000000000        0.0000000000        1.9430722688
C             0.0000000000        0.0000000000        5.8292178025
C            -0.0000000004        1.4227547884        1.9430722688
C             1.2321423953        0.7113778932        5.8292178025



     Writing output data file ./C.save/
     NEW-OLD atomic charge density approx. for the potential

     Check: negative core charge=   -0.000011
     extrapolated charge   15.89740, renormalised to   16.00000

     total cpu time spent up to now is       88.4 secs

     Self-consistent Calculation

     iteration #  1     ecut=    45.00 Ry     beta= 0.70
     Davidson diagonalization with overlap
     ethr =  1.00E-06,  avg # of iterations =  3.6

     total cpu time spent up to now is       90.0 secs

     total energy              =     -73.62060122 Ry
     estimated scf accuracy    <       0.00034851 Ry

     iteration #  2     ecut=    45.00 Ry     beta= 0.70
     Davidson diagonalization with overlap
     ethr =  2.18E-06,  avg # of iterations =  4.1

     total cpu time spent up to now is       91.8 secs

     total energy              =     -73.62132929 Ry
     estimated scf accuracy    <       0.00040525 Ry

     iteration #  3     ecut=    45.00 Ry     beta= 0.70
     Davidson diagonalization with overlap
     ethr =  2.18E-06,  avg # of iterations =  1.4

     total cpu time spent up to now is       92.9 secs

     total energy              =     -73.62127675 Ry
     estimated scf accuracy    <       0.00009799 Ry

     iteration #  4     ecut=    45.00 Ry     beta= 0.70
     Davidson diagonalization with overlap
     ethr =  6.12E-07,  avg # of iterations =  2.4

     total cpu time spent up to now is       94.3 secs

     total energy              =     -73.62130022 Ry
     estimated scf accuracy    <       0.00000310 Ry

     iteration #  5     ecut=    45.00 Ry     beta= 0.70
     Davidson diagonalization with overlap
     ethr =  1.94E-08,  avg # of iterations =  1.7

     total cpu time spent up to now is       95.4 secs

     End of self-consistent calculation

          k = 0.0000 0.0000 0.0000 (  1375 PWs)   bands (ev):

   -14.1220 -14.0297  -2.7124  -1.7822   2.2948   2.2948   2.2984   2.2984
     8.3161  12.5750  13.7471  13.7472

          k =-0.0000 0.0000 0.0794 (  1387 PWs)   bands (ev):

   -14.1088 -14.0435  -2.5908  -1.9360   2.2953   2.2953   2.2979   2.2979
     8.7809  11.6270  13.7490  13.7492

          k = 0.0000-0.0000-0.1587 (  1364 PWs)   bands (ev):

   -14.0763 -14.0763  -2.2792  -2.2792   2.2966   2.2966   2.2966   2.2966
    10.0223  10.0224  13.7538  13.7538

          k = 0.0000 0.0963 0.0000 (  1403 PWs)   bands (ev):

   -13.9579 -13.8667  -2.5126  -1.5896   1.6513   1.6585   1.9581   1.9640
     8.5270  12.7613  13.8052  13.8372

          k = 0.0000 0.0963 0.0794 (  1392 PWs)   bands (ev):

   -13.9448 -13.8803  -2.3919  -1.7421   1.6523   1.6575   1.9590   1.9631
     8.9891  11.8179  13.8162  13.8344

          k = 0.0000 0.0963-0.1587 (  1378 PWs)   bands (ev):

   -13.9128 -13.9128  -2.0826  -2.0826   1.6549   1.6549   1.9611   1.9611
    10.2233  10.2234  13.8264  13.8268

          k = 0.0000 0.1927 0.0000 (  1405 PWs)   bands (ev):

   -13.4675 -13.3794  -1.9178  -1.0178   0.0278   0.0429   1.1696   1.1782
     9.1605  13.2958  13.7444  13.8155

          k = 0.0000 0.1927 0.0794 (  1400 PWs)   bands (ev):

   -13.4548 -13.3926  -1.7998  -1.1661   0.0300   0.0407   1.1708   1.1770
     9.6137  12.3776  13.7719  13.8099

          k = 0.0000 0.1927-0.1587 (  1400 PWs)   bands (ev):

   -13.4239 -13.4239  -1.4978  -1.4978   0.0354   0.0354   1.1739   1.1739
    10.8229  10.8230  13.7924  13.7924

          k = 0.0000 0.2890 0.0000 (  1407 PWs)   bands (ev):

   -12.6565 -12.5739  -2.0581  -2.0331  -0.9453  -0.0881   0.2931   0.3035
    10.2139  12.4883  12.7144  13.4647

          k = 0.0000 0.2890 0.0794 (  1402 PWs)   bands (ev):

   -12.6446 -12.5862  -2.0545  -2.0368  -0.8323  -0.2284   0.2946   0.3020
    10.6433  12.5073  12.6428  13.3414

          k = 0.0000 0.2890-0.1587 (  1410 PWs)   bands (ev):

   -12.6156 -12.6156  -2.0457  -2.0457  -0.5438  -0.5438   0.2983   0.2983
    11.7528  11.7529  12.7053  12.7053

          k = 0.0000 0.3854 0.0000 (  1414 PWs)   bands (ev):

   -11.5374 -11.4621  -4.2526  -4.2172  -0.4383  -0.4269   0.3610   1.1427
    10.1080  10.4883  11.6750  13.1373

          k = 0.0000 0.3854 0.0794 (  1407 PWs)   bands (ev):

   -11.5266 -11.4733  -4.2475  -4.2224  -0.4366  -0.4285   0.4651   1.0162
    10.1453  10.4175  12.1099  13.1453

          k = 0.0000 0.3854-0.1587 (  1410 PWs)   bands (ev):

   -11.5001 -11.5001  -4.2350  -4.2350  -0.4326  -0.4326   0.7297   0.7297
    10.2674  10.2674  13.0452  13.0452

          k = 0.0000 0.4817 0.0000 (  1414 PWs)   bands (ev):

   -10.1407 -10.0750  -6.3473  -6.3025  -0.9102  -0.8982   1.8616   2.4825
     7.9305   8.3909  12.8843  12.9965

          k = 0.0000 0.4817 0.0794 (  1411 PWs)   bands (ev):

   -10.1313 -10.0848  -6.3408  -6.3091  -0.9084  -0.8999   1.9473   2.3859
     7.9816   8.3076  12.9051  12.9862

          k = 0.0000 0.4817-0.1587 (  1410 PWs)   bands (ev):

   -10.1082 -10.1082  -6.3250  -6.3250  -0.9042  -0.9042   2.1612   2.1612
     8.1289   8.1289  12.9485  12.9485

          k =-0.0000-0.5781 0.0000 (  1424 PWs)   bands (ev):

    -8.8601  -8.8285  -7.8415  -7.8167  -1.0722  -1.0601   2.8553   3.1543
     6.8852   7.2629  12.8060  12.9366

          k =-0.0000-0.5781 0.0794 (  1414 PWs)   bands (ev):

    -8.8553  -8.8329  -7.8383  -7.8207  -1.0704  -1.0618   2.9036   3.1162
     6.9143   7.1817  12.8249  12.9172

          k =-0.0000-0.5781-0.1587 (  1420 PWs)   bands (ev):

    -8.8439  -8.8439  -7.8299  -7.8299  -1.0661  -1.0661   3.0150   3.0150
     7.0221   7.0222  12.8706  12.8706

          k = 0.0834 0.1445 0.0000 (  1401 PWs)   bands (ev):

   -13.6306 -13.5416  -2.1152  -1.2073   0.6291   0.6364   1.2872   1.2922
     8.9497  13.1277  14.0861  14.1430

          k = 0.0834 0.1445 0.0794 (  1403 PWs)   bands (ev):

   -13.6178 -13.5549  -1.9963  -1.3570   0.6302   0.6353   1.2879   1.2915
     9.4062  12.1972  14.1089  14.1380

          k = 0.0834 0.1445-0.1587 (  1404 PWs)   bands (ev):

   -13.5866 -13.5866  -1.6917  -1.6917   0.6328   0.6328   1.2897   1.2897
    10.6250  10.6250  14.1258  14.1258

          k = 0.0834 0.2409 0.0000 (  1412 PWs)   bands (ev):

   -12.9799 -12.8952  -1.3305  -1.0694  -1.0528  -0.4552   0.2936   0.3036
     9.7948  13.3806  13.5021  13.9121

          k = 0.0834 0.2409 0.0794 (  1405 PWs)   bands (ev):

   -12.9677 -12.9078  -1.2155  -1.0670  -1.0552  -0.5989   0.2951   0.3021
    10.2378  12.9081  13.4186  13.5658

          k = 0.0834 0.2409-0.1587 (  1404 PWs)   bands (ev):

   -12.9380 -12.9380  -1.0612  -1.0612  -0.9211  -0.9211   0.2986   0.2986
    11.4177  11.4177  13.4788  13.4788

          k = 0.0834 0.3372 0.0000 (  1409 PWs)   bands (ev):

   -12.0148 -11.9364  -3.1332  -3.1048  -0.5902  -0.5766  -0.1858   0.6329
    11.0559  11.1791  11.4557  13.9831

          k = 0.0834 0.3372 0.0794 (  1408 PWs)   bands (ev):

   -12.0035 -11.9481  -3.1290  -3.1089  -0.5882  -0.5786  -0.0773   0.4996
    11.1637  11.3908  11.5520  13.8938

          k = 0.0834 0.3372-0.1587 (  1402 PWs)   bands (ev):

   -11.9760 -11.9760  -3.1190  -3.1190  -0.5834  -0.5834   0.1989   0.1989
    11.2829  11.2829  12.6487  12.6487

          k = 0.0834 0.4335 0.0000 (  1418 PWs)   bands (ev):

   -10.7541 -10.6839  -5.2493  -5.2100  -1.2236  -1.2083   1.2457   1.9600
     8.9063   9.3071  12.7125  13.7010

          k = 0.0834 0.4335 0.0794 (  1419 PWs)   bands (ev):

   -10.7440 -10.6944  -5.2436  -5.2158  -1.2214  -1.2105   1.3420   1.8459
     8.9537   9.2382  13.1024  13.7158

          k = 0.0834 0.4335-0.1587 (  1414 PWs)   bands (ev):

   -10.7193 -10.7193  -5.2298  -5.2298  -1.2160  -1.2160   1.5852   1.5852
     9.0856   9.0856  13.7090  13.7091

          k = 0.0834 0.5299 0.0000 (  1418 PWs)   bands (ev):

    -9.2713  -9.2145  -7.1862  -7.1411  -1.5514  -1.5354   2.6775   3.1308
     7.1480   7.5415  13.5246  13.6689

          k = 0.0834 0.5299 0.0794 (  1421 PWs)   bands (ev):

    -9.2631  -9.2229  -7.1797  -7.1478  -1.5490  -1.5377   2.7441   3.0652
     7.1860   7.4651  13.5457  13.6476

          k = 0.0834 0.5299-0.1587 (  1422 PWs)   bands (ev):

    -9.2431  -9.2431  -7.1639  -7.1639  -1.5434  -1.5434   2.9051   2.9051
     7.3067   7.3067  13.5964  13.5964

          k = 0.1669 0.2890 0.0000 (  1415 PWs)   bands (ev):

   -12.1751 -12.0955  -2.3879  -2.3745  -1.0574  -1.0477  -0.3705   0.4599
    10.8491  11.6712  11.8538  14.6249

          k = 0.1669 0.2890 0.0794 (  1409 PWs)   bands (ev):

   -12.1635 -12.1074  -2.3859  -2.3764  -1.0560  -1.0491  -0.2606   0.3245
    11.2717  11.6976  11.8271  13.8150

          k = 0.1669 0.2890-0.1587 (  1416 PWs)   bands (ev):

   -12.1357 -12.1357  -2.3812  -2.3811  -1.0527  -1.0526   0.0193   0.0193
    11.7613  11.7613  12.3967  12.3968

          k = 0.1669 0.3854 0.0000 (  1421 PWs)   bands (ev):

   -11.0670 -10.9947  -4.1107  -4.0835  -2.1115  -2.0936   0.9207   1.6757
     9.6875   9.9429  12.3094  15.5696

          k = 0.1669 0.3854 0.0794 (  1421 PWs)   bands (ev):

   -11.0566 -11.0055  -4.1067  -4.0874  -2.1089  -2.0962   1.0217   1.5540
     9.7223   9.9036  12.6962  14.9082

          k = 0.1669 0.3854-0.1587 (  1418 PWs)   bands (ev):

   -11.0312 -11.0312  -4.0971  -4.0971  -2.1026  -2.1026   1.2775   1.2775
     9.8109   9.8109  13.7039  13.7040

          k = 0.1669 0.4817 0.0000 (  1420 PWs)   bands (ev):

    -9.6905  -9.6279  -6.0183  -5.9781  -2.6870  -2.6641   2.4197   3.0268
     7.7373   8.0711  14.1443  15.3532

          k = 0.1669 0.4817 0.0794 (  1424 PWs)   bands (ev):

    -9.6815  -9.6372  -6.0124  -5.9840  -2.6836  -2.6675   2.5034   2.9323
     7.7789   8.0158  14.4513  15.3640

          k = 0.1669 0.4817-0.1587 (  1426 PWs)   bands (ev):

    -9.6594  -9.6594  -5.9983  -5.9983  -2.6756  -2.6756   2.7124   2.7124
     7.8906   7.8906  15.1551  15.1558

          k = 0.1669 0.5781 0.0000 (  1423 PWs)   bands (ev):

    -8.4407  -8.4107  -7.4412  -7.4194  -2.8715  -2.8476   3.4559   3.7489
     6.7476   6.9512  15.2535  15.4974

          k = 0.1669 0.5781 0.0794 (  1420 PWs)   bands (ev):

    -8.4361  -8.4149  -7.4384  -7.4229  -2.8681  -2.8511   3.5039   3.7122
     6.7586   6.9043  15.2818  15.4508

          k = 0.1669 0.5781-0.1587 (  1432 PWs)   bands (ev):

    -8.4253  -8.4253  -7.4310  -7.4310  -2.8596  -2.8596   3.6136   3.6136
     6.8136   6.8136  15.3550  15.3550

          k = 0.2503 0.4335 0.0000 (  1429 PWs)   bands (ev):

    -9.8387  -9.7747  -5.1345  -5.1147  -3.5850  -3.5700   2.3139   2.9685
     8.0793   8.3213  13.9412  15.9944

          k = 0.2503 0.4335 0.0794 (  1425 PWs)   bands (ev):

    -9.8295  -9.7842  -5.1316  -5.1176  -3.5829  -3.5723   2.4028   2.8648
     8.1146   8.2855  14.2233  15.6340

          k = 0.2503 0.4335-0.1587 (  1426 PWs)   bands (ev):

    -9.8069  -9.8069  -5.1245  -5.1245  -3.5777  -3.5777   2.6264   2.6264
     8.1998   8.1998  14.9059  14.9060

          k = 0.2503 0.5299 0.0000 (  1425 PWs)   bands (ev):

    -8.4142  -8.3631  -6.5565  -6.5229  -4.2938  -4.2684   3.7948   4.2467
     6.5725   6.8002  15.8578  16.1248

          k = 0.2503 0.5299 0.0794 (  1433 PWs)   bands (ev):

    -8.4068  -8.3706  -6.5517  -6.5279  -4.2902  -4.2722   3.8605   4.1807
     6.6003   6.7616  15.6829  15.8793

          k = 0.2503 0.5299-0.1587 (  1442 PWs)   bands (ev):

    -8.3888  -8.3888  -6.5398  -6.5398  -4.2813  -4.2813   4.0203   4.0203
     6.6756   6.6756  15.6286  15.6287

          k = 0.3337 0.5781 0.0000 (  1443 PWs)   bands (ev):

    -7.2017  -7.1753  -7.1753  -7.1503  -5.1764  -5.1764   5.1109   5.3765
     5.3765   5.6667  15.9460  15.9460

          k = 0.3337 0.5781 0.0794 (  1434 PWs)   bands (ev):

    -7.1943  -7.1752  -7.1752  -7.1579  -5.1766  -5.1766   5.1870   5.3793
     5.3794   5.5794  15.6602  15.6602

          k = 0.3337 0.5781-0.1587 (  1434 PWs)   bands (ev):

    -7.1762  -7.1762  -7.1751  -7.1751  -5.1768  -5.1768   5.3777   5.3777
     5.3822   5.3822  15.4592  15.4592

     the Fermi energy is     5.3792 ev

!    total energy              =     -73.62130039 Ry

     total all-electron energy =      -304.677692 Ry
     estimated scf accuracy    <       0.00000019 Ry
     smearing contrib. (-TS)   =      -0.00020630 Ry
     internal energy E=F+TS    =     -73.62109409 Ry

     The total energy is F=E-TS. E is the sum of the following terms:
     one-electron contribution =     -22.64491568 Ry
     hartree contribution      =      18.77823576 Ry
     xc contribution           =     -18.62996096 Ry
     ewald contribution        =     -26.68792596 Ry
     one-center paw contrib.   =     -24.43652725 Ry

     convergence has been achieved in   5 iterations

     Forces acting on atoms (cartesian axes, Ry/au):

     atom    1 type  1   force =     0.00000000    0.00000000    0.00000000
     atom    2 type  1   force =    -0.00000000   -0.00000000    0.00000000
     atom    3 type  1   force =    -0.00000000   -0.00000000    0.00000000
     atom    4 type  1   force =     0.00000000    0.00000000    0.00000000

     Total force =     0.000000     Total SCF correction =     0.000000


     Computing stress (Cartesian axis) and pressure

          total   stress  (Ry/bohr**3)                   (kbar)     P=       -3.48
   0.00004047   0.00000000   0.00000000            5.95        0.00        0.00
   0.00000000   0.00004047  -0.00000000            0.00        5.95       -0.00
   0.00000000  -0.00000000  -0.00015189            0.00       -0.00      -22.34

     Energy error            =      1.8E-04
     Gradient error          =      7.1E-23
     Cell gradient error     =      1.5E-04


     number of scf cycles    =   2
     number of bfgs steps    =   1

     enthalpy old            =     -73.6211233611 Ry
     enthalpy new            =     -73.6213003933 Ry

     CASE: enthalpy_new < enthalpy_old

     new trust radius        =       0.0144714644 bohr
     new conv_thr            =       0.0000000100 Ry

     new unit-cell volume =    274.47965 a.u.^3 (    40.67369 Ang^3 )
     density =      1.96144 g/cm^3

CELL_PARAMETERS (angstrom)
   2.463570695  -0.000000001   0.000000000
  -1.231785847   2.133515122  -0.000000000
   0.000000000  -0.000000000   7.738428850

ATOMIC_POSITIONS (angstrom)
C             0.0000000000        0.0000000000        1.9346069645
C            -0.0000000000       -0.0000000000        5.8038218853
C            -0.0000000005        1.4223430815        1.9346069645
C             1.2317858463        0.7111720396        5.8038218853



     Writing output data file ./C.save/
     NEW-OLD atomic charge density approx. for the potential

     Check: negative core charge=   -0.000010
     extrapolated charge   15.92068, renormalised to   16.00000

     total cpu time spent up to now is       98.5 secs

     Self-consistent Calculation

     iteration #  1     ecut=    45.00 Ry     beta= 0.70
     Davidson diagonalization with overlap
     ethr =  1.00E-06,  avg # of iterations =  3.4

     total cpu time spent up to now is      100.0 secs

     total energy              =     -73.62109109 Ry
     estimated scf accuracy    <       0.00017423 Ry

     iteration #  2     ecut=    45.00 Ry     beta= 0.70
     Davidson diagonalization with overlap
     ethr =  1.09E-06,  avg # of iterations =  3.9

     total cpu time spent up to now is      101.6 secs

     total energy              =     -73.62150372 Ry
     estimated scf accuracy    <       0.00023837 Ry

     iteration #  3     ecut=    45.00 Ry     beta= 0.70
     Davidson diagonalization with overlap
     ethr =  1.09E-06,  avg # of iterations =  1.4

     total cpu time spent up to now is      102.7 secs

     total energy              =     -73.62146777 Ry
     estimated scf accuracy    <       0.00006312 Ry

     iteration #  4     ecut=    45.00 Ry     beta= 0.70
     Davidson diagonalization with overlap
     ethr =  3.95E-07,  avg # of iterations =  2.2

     total cpu time spent up to now is      104.1 secs

     total energy              =     -73.62148323 Ry
     estimated scf accuracy    <       0.00000232 Ry

     iteration #  5     ecut=    45.00 Ry     beta= 0.70
     Davidson diagonalization with overlap
     ethr =  1.45E-08,  avg # of iterations =  1.1

     total cpu time spent up to now is      105.2 secs

     total energy              =     -73.62148333 Ry
     estimated scf accuracy    <       0.00000041 Ry

     iteration #  6     ecut=    45.00 Ry     beta= 0.70
     Davidson diagonalization with overlap
     ethr =  2.54E-09,  avg # of iterations =  1.0

     total cpu time spent up to now is      106.2 secs

     total energy              =     -73.62148312 Ry
     estimated scf accuracy    <       0.00000033 Ry

     iteration #  7     ecut=    45.00 Ry     beta= 0.70
     Davidson diagonalization with overlap
     ethr =  2.04E-09,  avg # of iterations =  2.0

     total cpu time spent up to now is      107.5 secs

     End of self-consistent calculation

          k = 0.0000 0.0000 0.0000 (  1375 PWs)   bands (ev):

   -14.0803 -13.9842  -2.6796  -1.7258   2.3464   2.3464   2.3501   2.3501
     8.3839  12.6952  13.8034  13.8035

          k =-0.0000 0.0000 0.0797 (  1387 PWs)   bands (ev):

   -14.0665 -13.9986  -2.5551  -1.8838   2.3469   2.3469   2.3496   2.3496
     8.8555  11.7371  13.8054  13.8056

          k = 0.0000-0.0000-0.1594 (  1364 PWs)   bands (ev):

   -14.0327 -14.0327  -2.2359  -2.2359   2.3483   2.3483   2.3483   2.3483
    10.1135  10.1135  13.8104  13.8104

          k = 0.0000 0.0964 0.0000 (  1403 PWs)   bands (ev):

   -13.9161 -13.8212  -2.4795  -1.5332   1.7025   1.7101   2.0093   2.0154
     8.5947  12.8810  13.8618  13.8945

          k = 0.0000 0.0964 0.0797 (  1392 PWs)   bands (ev):

   -13.9024 -13.8353  -2.3560  -1.6898   1.7036   1.7090   2.0102   2.0145
     9.0636  11.9274  13.8729  13.8915

          k = 0.0000 0.0964-0.1594 (  1378 PWs)   bands (ev):

   -13.8692 -13.8692  -2.0391  -2.0391   1.7063   1.7063   2.0124   2.0124
    10.3142  10.3142  13.8833  13.8835

          k = 0.0000 0.1927 0.0000 (  1405 PWs)   bands (ev):

   -13.4253 -13.3337  -1.8842  -0.9612   0.0781   0.0939   1.2200   1.2290
     9.2279  13.4128  13.8012  13.8741

          k = 0.0000 0.1927 0.0797 (  1400 PWs)   bands (ev):

   -13.4121 -13.3474  -1.7634  -1.1136   0.0804   0.0916   1.2213   1.2277
     9.6876  12.4849  13.8296  13.8683

          k = 0.0000 0.1927-0.1594 (  1400 PWs)   bands (ev):

   -13.3800 -13.3800  -1.4539  -1.4539   0.0860   0.0860   1.2245   1.2245
    10.9128  10.9128  13.8502  13.8502

          k = 0.0000 0.2891 0.0000 (  1407 PWs)   bands (ev):

   -12.6138 -12.5278  -2.0091  -1.9830  -0.9106  -0.0313   0.3427   0.3536
    10.2807  12.5411  12.7760  13.5216

          k = 0.0000 0.2891 0.0797 (  1402 PWs)   bands (ev):

   -12.6014 -12.5406  -2.0053  -1.9868  -0.7948  -0.1755   0.3443   0.3520
    10.7162  12.5649  12.7035  13.4158

          k = 0.0000 0.2891-0.1594 (  1410 PWs)   bands (ev):

   -12.5712 -12.5712  -1.9961  -1.9961  -0.4992  -0.4992   0.3481   0.3481
    11.8375  11.8375  12.7643  12.7643

          k = 0.0000 0.3855 0.0000 (  1414 PWs)   bands (ev):

   -11.4939 -11.4155  -4.2050  -4.1681  -0.3893  -0.3773   0.3973   1.1995
    10.1561  10.5479  11.7408  13.1942

          k = 0.0000 0.3855 0.0797 (  1407 PWs)   bands (ev):

   -11.4826 -11.4272  -4.1996  -4.1735  -0.3876  -0.3791   0.5040   1.0695
    10.1947  10.4751  12.1813  13.2029

          k = 0.0000 0.3855-0.1594 (  1410 PWs)   bands (ev):

   -11.4551 -11.4551  -4.1866  -4.1866  -0.3833  -0.3833   0.7753   0.7753
    10.3206  10.3206  13.1127  13.1127

          k = 0.0000 0.4819 0.0000 (  1414 PWs)   bands (ev):

   -10.0961 -10.0277  -6.3011  -6.2544  -0.8616  -0.8490   1.9006   2.5382
     7.9764   8.4492  12.9408  13.0574

          k = 0.0000 0.4819 0.0797 (  1411 PWs)   bands (ev):

   -10.0863 -10.0379  -6.2944  -6.2613  -0.8597  -0.8509   1.9885   2.4390
     8.0285   8.3634  12.9623  13.0466

          k = 0.0000 0.4819-0.1594 (  1410 PWs)   bands (ev):

   -10.0622 -10.0622  -6.2779  -6.2779  -0.8553  -0.8553   2.2081   2.2081
     8.1796   8.1796  13.0073  13.0073

          k =-0.0000-0.5782-0.0000 (  1424 PWs)   bands (ev):

    -8.8130  -8.7801  -7.7968  -7.7710  -1.0237  -1.0110   2.8982   3.2058
     6.9328   7.3190  12.8625  12.9980

          k =-0.0000-0.5782 0.0797 (  1414 PWs)   bands (ev):

    -8.8080  -8.7847  -7.7935  -7.7752  -1.0219  -1.0129   2.9481   3.1668
     6.9619   7.2354  12.8820  12.9778

          k =-0.0000-0.5782-0.1594 (  1420 PWs)   bands (ev):

    -8.7961  -8.7961  -7.7848  -7.7848  -1.0174  -1.0174   3.0628   3.0628
     7.0716   7.0716  12.9295  12.9295

          k = 0.0835 0.1446-0.0000 (  1401 PWs)   bands (ev):

   -13.5885 -13.4959  -2.0818  -1.1508   0.6800   0.6876   1.3378   1.3430
     9.0172  13.2461  14.1428  14.2006

          k = 0.0835 0.1446 0.0797 (  1403 PWs)   bands (ev):

   -13.5752 -13.5098  -1.9600  -1.3046   0.6811   0.6865   1.3385   1.3422
     9.4803  12.3055  14.1660  14.1955

          k = 0.0835 0.1446-0.1594 (  1404 PWs)   bands (ev):

   -13.5428 -13.5428  -1.6480  -1.6480   0.6838   0.6838   1.3403   1.3404
    10.7152  10.7153  14.1830  14.1830

          k = 0.0835 0.2409 0.0000 (  1412 PWs)   bands (ev):

   -12.9374 -12.8493  -1.2963  -1.0196  -1.0022  -0.3984   0.3432   0.3537
     9.8619  13.4364  13.5685  14.0193

          k = 0.0835 0.2409 0.0797 (  1405 PWs)   bands (ev):

   -12.9247 -12.8624  -1.1784  -1.0170  -1.0047  -0.5461   0.3448   0.3521
    10.3113  13.0108  13.4737  13.6272

          k = 0.0835 0.2409-0.1594 (  1404 PWs)   bands (ev):

   -12.8938 -12.8938  -1.0110  -1.0110  -0.8768  -0.8768   0.3484   0.3484
    11.5064  11.5064  13.5357  13.5357

          k = 0.0835 0.3373 0.0000 (  1409 PWs)   bands (ev):

   -11.9716 -11.8900  -3.0847  -3.0550  -0.5413  -0.5271  -0.1502   0.6897
    11.1223  11.2295  11.5151  14.0397

          k = 0.0835 0.3373 0.0797 (  1408 PWs)   bands (ev):

   -11.9598 -11.9022  -3.0804  -3.0594  -0.5393  -0.5292  -0.0391   0.5527
    11.2174  11.4499  11.6211  13.9637

          k = 0.0835 0.3373-0.1594 (  1402 PWs)   bands (ev):

   -11.9312 -11.9312  -3.0699  -3.0699  -0.5342  -0.5342   0.2441   0.2441
    11.3379  11.3379  12.7343  12.7344

          k = 0.0835 0.4337 0.0000 (  1418 PWs)   bands (ev):

   -10.7100 -10.6370  -5.2023  -5.1613  -1.1752  -1.1592   1.2833   2.0166
     8.9533   9.3656  12.7776  13.7580

          k = 0.0835 0.4337 0.0797 (  1419 PWs)   bands (ev):

   -10.6994 -10.6478  -5.1964  -5.1674  -1.1729  -1.1616   1.3821   1.8993
     9.0020   9.2946  13.1721  13.7735

          k = 0.0835 0.4337-0.1594 (  1414 PWs)   bands (ev):

   -10.6738 -10.6738  -5.1819  -5.1819  -1.1672  -1.1672   1.6315   1.6315
     9.1376   9.1376  13.7694  13.7694

          k = 0.0835 0.5300 0.0000 (  1418 PWs)   bands (ev):

    -9.2258  -9.1665  -7.1408  -7.0938  -1.5032  -1.4865   2.7188   3.1845
     7.1948   7.5981  13.5812  13.7307

          k = 0.0835 0.5300 0.0797 (  1421 PWs)   bands (ev):

    -9.2172  -9.1753  -7.1340  -7.1008  -1.5008  -1.4889   2.7872   3.1173
     7.2333   7.5195  13.6030  13.7086

          k = 0.0835 0.5300-0.1594 (  1422 PWs)   bands (ev):

    -9.1963  -9.1963  -7.1175  -7.1175  -1.4949  -1.4949   2.9527   2.9527
     7.3567   7.3567  13.6555  13.6555

          k = 0.1669 0.2891-0.0000 (  1415 PWs)   bands (ev):

   -12.1320 -12.0493  -2.3383  -2.3243  -1.0090  -0.9989  -0.3351   0.5168
    10.9157  11.7234  11.9119  14.7345

          k = 0.1669 0.2891 0.0797 (  1409 PWs)   bands (ev):

   -12.1200 -12.0616  -2.3362  -2.3263  -1.0076  -1.0004  -0.2226   0.3776
    11.3442  11.7506  11.8844  13.9167

          k = 0.1669 0.2891-0.1594 (  1416 PWs)   bands (ev):

   -12.0910 -12.0910  -2.3313  -2.3312  -1.0041  -1.0040   0.0643   0.0643
    11.8164  11.8164  12.4836  12.4836

          k = 0.1669 0.3855 0.0000 (  1421 PWs)   bands (ev):

   -11.0231 -10.9479  -4.0624  -4.0339  -2.0640  -2.0452   0.9577   1.7326
     9.7369  10.0001  12.3752  15.6256

          k = 0.1669 0.3855 0.0797 (  1421 PWs)   bands (ev):

   -11.0123 -10.9591  -4.0582  -4.0381  -2.0613  -2.0480   1.0612   1.6075
     9.7728   9.9596  12.7671  14.9998

          k = 0.1669 0.3855-0.1594 (  1418 PWs)   bands (ev):

   -10.9859 -10.9859  -4.0482  -4.0482  -2.0547  -2.0547   1.3236   1.3236
     9.8641   9.8641  13.7865  13.7865

          k = 0.1669 0.4819 0.0000 (  1420 PWs)   bands (ev):

    -9.6456  -9.5803  -5.9715  -5.9296  -2.6397  -2.6159   2.4592   3.0828
     7.7844   8.1276  14.2085  15.4099

          k = 0.1669 0.4819 0.0797 (  1424 PWs)   bands (ev):

    -9.6362  -9.5900  -5.9655  -5.9358  -2.6363  -2.6194   2.5451   2.9856
     7.8270   8.0706  14.5188  15.4214

          k = 0.1669 0.4819-0.1594 (  1426 PWs)   bands (ev):

    -9.6132  -9.6132  -5.9507  -5.9507  -2.6279  -2.6279   2.7597   2.7597
     7.9418   7.9418  15.2245  15.2246

          k = 0.1669 0.5782 0.0000 (  1423 PWs)   bands (ev):

    -8.3935  -8.3622  -7.3959  -7.3731  -2.8244  -2.7994   3.4993   3.8007
     6.7972   7.0049  15.3099  15.5609

          k = 0.1669 0.5782 0.0797 (  1420 PWs)   bands (ev):

    -8.3887  -8.3665  -7.3929  -7.3768  -2.8208  -2.8031   3.5488   3.7632
     6.8079   6.9566  15.3390  15.5126

          k = 0.1669 0.5782-0.1594 (  1432 PWs)   bands (ev):

    -8.3774  -8.3774  -7.3853  -7.3853  -2.8119  -2.8119   3.6619   3.6619
     6.8636   6.8636  15.4139  15.4139

          k = 0.2504 0.4337-0.0000 (  1429 PWs)   bands (ev):

    -9.7939  -9.7273  -5.0860  -5.0653  -3.5389  -3.5232   2.3529   3.0252
     8.1275   8.3769  14.0057  16.0730

          k = 0.2504 0.4337 0.0797 (  1425 PWs)   bands (ev):

    -9.7843  -9.7371  -5.0829  -5.0683  -3.5367  -3.5256   2.4441   2.9185
     8.1639   8.3400  14.2906  15.7089

          k = 0.2504 0.4337-0.1594 (  1426 PWs)   bands (ev):

    -9.7609  -9.7609  -5.0756  -5.0756  -3.5313  -3.5313   2.6736   2.6737
     8.2517   8.2517  14.9776  14.9776

          k = 0.2504 0.5300 0.0000 (  1425 PWs)   bands (ev):

    -8.3680  -8.3148  -6.5095  -6.4744  -4.2482  -4.2217   3.8369   4.3014
     6.6203   6.8546  15.9195  16.1889

          k = 0.2504 0.5300 0.0797 (  1433 PWs)   bands (ev):

    -8.3603  -8.3226  -6.5045  -6.4796  -4.2444  -4.2256   3.9045   4.2336
     6.6487   6.8147  15.7380  15.9363

          k = 0.2504 0.5300-0.1594 (  1442 PWs)   bands (ev):

    -8.3415  -8.3415  -6.4921  -6.4921  -4.2351  -4.2351   4.0688   4.0688
     6.7261   6.7261  15.6809  15.6809

          k = 0.3338 0.5782-0.0000 (  1443 PWs)   bands (ev):

    -7.1546  -7.1270  -7.1270  -7.1009  -5.1320  -5.1320   5.1527   5.4259
     5.4259   5.7251  16.0034  16.0034

          k = 0.3338 0.5782 0.0797 (  1434 PWs)   bands (ev):

    -7.1468  -7.1269  -7.1269  -7.1088  -5.1322  -5.1322   5.2310   5.4289
     5.4289   5.6351  15.7107  15.7107

          k = 0.3338 0.5782-0.1594 (  1434 PWs)   bands (ev):

    -7.1279  -7.1279  -7.1268  -7.1268  -5.1324  -5.1324   5.4272   5.4272
     5.4320   5.4320  15.5058  15.5058

     the Fermi energy is     5.4288 ev

!    total energy              =     -73.62148318 Ry

     total all-electron energy =      -304.677874 Ry
     estimated scf accuracy    <          1.0E-08 Ry
     smearing contrib. (-TS)   =      -0.00020501 Ry
     internal energy E=F+TS    =     -73.62127817 Ry

     The total energy is F=E-TS. E is the sum of the following terms:
     one-electron contribution =     -22.25336977 Ry
     hartree contribution      =      18.61032201 Ry
     xc contribution           =     -18.63264012 Ry
     ewald contribution        =     -26.90897787 Ry
     one-center paw contrib.   =     -24.43661242 Ry

     convergence has been achieved in   7 iterations

     Forces acting on atoms (cartesian axes, Ry/au):

     atom    1 type  1   force =    -0.00000000   -0.00000000    0.00000000
     atom    2 type  1   force =     0.00000000   -0.00000000   -0.00000000
     atom    3 type  1   force =    -0.00000000   -0.00000000   -0.00000000
     atom    4 type  1   force =     0.00000000    0.00000000   -0.00000000

     Total force =     0.000000     Total SCF correction =     0.000000


     Computing stress (Cartesian axis) and pressure

          total   stress  (Ry/bohr**3)                   (kbar)     P=       -1.76
   0.00006180   0.00000000   0.00000000            9.09        0.00        0.00
   0.00000000   0.00006180  -0.00000000            0.00        9.09       -0.00
   0.00000000  -0.00000000  -0.00015958            0.00       -0.00      -23.48

     Energy error            =      1.8E-04
     Gradient error          =      8.2E-23
     Cell gradient error     =      1.6E-04


     number of scf cycles    =   3
     number of bfgs steps    =   2

     enthalpy old            =     -73.6213003933 Ry
     enthalpy new            =     -73.6214831779 Ry

     CASE: enthalpy_new < enthalpy_old


     WARNING: bfgs curvature condition failed, Theta= 0.662
     uphill step: resetting bfgs history

     new trust radius        =       0.0132191658 bohr
     new conv_thr            =       0.0000000100 Ry

     new unit-cell volume =    274.22996 a.u.^3 (    40.63669 Ang^3 )
     density =      1.96322 g/cm^3

CELL_PARAMETERS (angstrom)
   2.467376626   0.000000000   0.000000000
  -1.233688813   2.136811154  -0.000000000
   0.000000000  -0.000000000   7.707556351

ATOMIC_POSITIONS (angstrom)
C            -0.0000000000       -0.0000000000        1.9268888409
C             0.0000000000       -0.0000000000        5.7806675104
C             0.0000000000        1.4245404362        1.9268888409
C             1.2336888130        0.7122707181        5.7806675104



     Writing output data file ./C.save/
     NEW-OLD atomic charge density approx. for the potential

     Check: negative core charge=   -0.000010
     extrapolated charge   15.98543, renormalised to   16.00000

     total cpu time spent up to now is      110.6 secs

     Self-consistent Calculation

     iteration #  1     ecut=    45.00 Ry     beta= 0.70
     Davidson diagonalization with overlap
     ethr =  1.00E-06,  avg # of iterations =  2.6

     Threshold (ethr) on eigenvalues was too large:
     Diagonalizing with lowered threshold

     Davidson diagonalization with overlap
     ethr =  3.36E-08,  avg # of iterations =  1.6

     total cpu time spent up to now is      112.9 secs

     total energy              =     -73.62165555 Ry
     estimated scf accuracy    <       0.00000537 Ry

     iteration #  2     ecut=    45.00 Ry     beta= 0.70
     Davidson diagonalization with overlap
     ethr =  3.35E-08,  avg # of iterations =  2.4

     total cpu time spent up to now is      114.2 secs

     total energy              =     -73.62166169 Ry
     estimated scf accuracy    <       0.00000686 Ry

     iteration #  3     ecut=    45.00 Ry     beta= 0.70
     Davidson diagonalization with overlap
     ethr =  3.35E-08,  avg # of iterations =  1.0

     total cpu time spent up to now is      115.2 secs

     total energy              =     -73.62166031 Ry
     estimated scf accuracy    <       0.00000234 Ry

     iteration #  4     ecut=    45.00 Ry     beta= 0.70
     Davidson diagonalization with overlap
     ethr =  1.46E-08,  avg # of iterations =  2.0

     total cpu time spent up to now is      116.6 secs

     total energy              =     -73.62166086 Ry
     estimated scf accuracy    <       0.00000009 Ry

     iteration #  5     ecut=    45.00 Ry     beta= 0.70
     Davidson diagonalization with overlap
     ethr =  5.63E-10,  avg # of iterations =  1.0

     total cpu time spent up to now is      117.6 secs

     total energy              =     -73.62166085 Ry
     estimated scf accuracy    <       0.00000002 Ry

     iteration #  6     ecut=    45.00 Ry     beta= 0.70
     Davidson diagonalization with overlap
     ethr =  1.42E-10,  avg # of iterations =  2.0

     total cpu time spent up to now is      118.9 secs

     End of self-consistent calculation

          k = 0.0000 0.0000 0.0000 (  1375 PWs)   bands (ev):

   -14.0378 -13.9380  -2.6526  -1.6744   2.3523   2.3524   2.3563   2.3563
     8.4296  12.7885  13.7799  13.7800

          k =-0.0000 0.0000 0.0800 (  1387 PWs)   bands (ev):

   -14.0235 -13.9530  -2.5252  -1.8368   2.3529   2.3529   2.3557   2.3557
     8.9078  11.8220  13.7819  13.7822

          k = 0.0000-0.0000-0.1601 (  1364 PWs)   bands (ev):

   -13.9884 -13.9884  -2.1981  -2.1981   2.3543   2.3543   2.3544   2.3544
    10.1814  10.1815  13.7872  13.7872

          k =-0.0000 0.0962 0.0000 (  1403 PWs)   bands (ev):

   -13.8740 -13.7754  -2.4532  -1.4827   1.7094   1.7175   2.0168   2.0233
     8.6395  12.9727  13.8375  13.8706

          k =-0.0000 0.0962 0.0800 (  1392 PWs)   bands (ev):

   -13.8598 -13.7901  -2.3267  -1.6437   1.7106   1.7163   2.0178   2.0224
     9.1149  12.0108  13.8486  13.8674

          k =-0.0000 0.0962-0.1601 (  1378 PWs)   bands (ev):

   -13.8253 -13.8253  -2.0021  -2.0021   1.7135   1.7135   2.0201   2.0201
    10.3810  10.3810  13.8591  13.8592

          k =-0.0000 0.1924 0.0000 (  1405 PWs)   bands (ev):

   -13.3845 -13.2894  -1.8599  -0.9133   0.0881   0.1048   1.2310   1.2406
     9.2701  13.4980  13.7723  13.8461

          k =-0.0000 0.1924 0.0800 (  1400 PWs)   bands (ev):

   -13.3708 -13.3036  -1.7362  -1.0698   0.0906   0.1024   1.2324   1.2392
     9.7362  12.5629  13.8011  13.8402

          k =-0.0000 0.1924-0.1601 (  1400 PWs)   bands (ev):

   -13.3375 -13.3375  -1.4191  -1.4191   0.0965   0.0965   1.2358   1.2358
    10.9760  10.9760  13.8214  13.8214

          k =-0.0000 0.2887 0.0000 (  1407 PWs)   bands (ev):

   -12.5751 -12.4857  -1.9944  -1.9670  -0.8895   0.0124   0.3574   0.3690
    10.3185  12.5149  12.7593  13.4869

          k =-0.0000 0.2887 0.0800 (  1402 PWs)   bands (ev):

   -12.5622 -12.4991  -1.9904  -1.9710  -0.7710  -0.1359   0.3591   0.3673
    10.7594  12.5455  12.6879  13.4138

          k =-0.0000 0.2887-0.1601 (  1410 PWs)   bands (ev):

   -12.5309 -12.5309  -1.9807  -1.9807  -0.4681  -0.4681   0.3632   0.3632
    11.8874  11.8875  12.7463  12.7463

          k =-0.0000 0.3849 0.0000 (  1414 PWs)   bands (ev):

   -11.4583 -11.3768  -4.1848  -4.1462  -0.3716  -0.3589   0.4139   1.2370
    10.1396  10.5422  11.7718  13.1556

          k =-0.0000 0.3849 0.0800 (  1407 PWs)   bands (ev):

   -11.4466 -11.3889  -4.1792  -4.1519  -0.3697  -0.3608   0.5233   1.1034
    10.1797  10.4678  12.2162  13.1659

          k =-0.0000 0.3849-0.1601 (  1410 PWs)   bands (ev):

   -11.4180 -11.4180  -4.1656  -4.1656  -0.3653  -0.3653   0.8014   0.8014
    10.3093  10.3093  13.1028  13.1028

          k =-0.0000 0.4811 0.0000 (  1414 PWs)   bands (ev):

   -10.0649  -9.9937  -6.2749  -6.2261  -0.8419  -0.8287   1.9126   2.5669
     7.9706   8.4548  12.9011  13.0238

          k =-0.0000 0.4811 0.0800 (  1411 PWs)   bands (ev):

   -10.0547 -10.0043  -6.2678  -6.2333  -0.8400  -0.8306   2.0028   2.4650
     8.0237   8.3667  12.9227  13.0110

          k =-0.0000 0.4811-0.1601 (  1410 PWs)   bands (ev):

   -10.0297 -10.0297  -6.2507  -6.2507  -0.8353  -0.8353   2.2281   2.2281
     8.1782   8.1782  12.9693  12.9693

          k = 0.0000-0.5773-0.0000 (  1424 PWs)   bands (ev):

    -8.7903  -8.7559  -7.7604  -7.7334  -1.0035  -0.9901   2.9088   3.2254
     6.9360   7.3293  12.8212  12.9614

          k = 0.0000-0.5773 0.0800 (  1414 PWs)   bands (ev):

    -8.7850  -8.7607  -7.7569  -7.7378  -1.0015  -0.9920   2.9604   3.1854
     6.9648   7.2434  12.8414  12.9405

          k = 0.0000-0.5773-0.1601 (  1420 PWs)   bands (ev):

    -8.7726  -8.7726  -7.7479  -7.7479  -0.9968  -0.9968   3.0787   3.0787
     7.0759   7.0759  12.8905  12.8905

          k = 0.0833 0.1443-0.0000 (  1401 PWs)   bands (ev):

   -13.5473 -13.4511  -2.0568  -1.1020   0.6886   0.6966   1.3485   1.3541
     9.0603  13.3345  14.1181  14.1758

          k = 0.0833 0.1443 0.0800 (  1403 PWs)   bands (ev):

   -13.5335 -13.4655  -1.9321  -1.2601   0.6898   0.6954   1.3493   1.3532
     9.5298  12.3859  14.1412  14.1704

          k = 0.0833 0.1443-0.1601 (  1404 PWs)   bands (ev):

   -13.4998 -13.4998  -1.6125  -1.6124   0.6926   0.6926   1.3512   1.3512
    10.7797  10.7798  14.1577  14.1577

          k = 0.0833 0.2406 0.0000 (  1412 PWs)   bands (ev):

   -12.8979 -12.8063  -1.2740  -1.0077  -0.9894  -0.3530   0.3579   0.3689
     9.9015  13.4067  13.5527  14.0877

          k = 0.0833 0.2406 0.0800 (  1405 PWs)   bands (ev):

   -12.8847 -12.8199  -1.1533  -1.0050  -0.9920  -0.5048   0.3595   0.3673
    10.3569  13.0775  13.4431  13.6056

          k = 0.0833 0.2406-0.1601 (  1404 PWs)   bands (ev):

   -12.8526 -12.8526  -0.9986  -0.9986  -0.8442  -0.8442   0.3634   0.3634
    11.5658  11.5659  13.5064  13.5064

          k = 0.0833 0.3368 0.0000 (  1409 PWs)   bands (ev):

   -11.9347 -11.8498  -3.0678  -3.0367  -0.5235  -0.5085  -0.1318   0.7299
    11.1565  11.2080  11.5023  14.0015

          k = 0.0833 0.3368 0.0800 (  1408 PWs)   bands (ev):

   -11.9225 -11.8625  -3.0633  -3.0413  -0.5213  -0.5107  -0.0180   0.5891
    11.2041  11.4394  11.6503  13.9513

          k = 0.0833 0.3368-0.1601 (  1402 PWs)   bands (ev):

   -11.8927 -11.8927  -3.0523  -3.0523  -0.5160  -0.5160   0.2723   0.2723
    11.3222  11.3222  12.7832  12.7832

          k = 0.0833 0.4330 0.0000 (  1418 PWs)   bands (ev):

   -10.6767 -10.6007  -5.1797  -5.1369  -1.1552  -1.1383   1.2971   2.0495
     8.9420   9.3650  12.8035  13.7170

          k = 0.0833 0.4330 0.0800 (  1419 PWs)   bands (ev):

   -10.6657 -10.6120  -5.1735  -5.1432  -1.1527  -1.1408   1.3983   1.9290
     8.9919   9.2922  13.2000  13.7339

          k = 0.0833 0.4330-0.1601 (  1414 PWs)   bands (ev):

   -10.6391 -10.6391  -5.1584  -5.1584  -1.1468  -1.1468   1.6541   1.6541
     9.1310   9.1310  13.7379  13.7379

          k = 0.0833 0.5292 0.0000 (  1418 PWs)   bands (ev):

    -9.1983  -9.1367  -7.1109  -7.0619  -1.4821  -1.4645   2.7289   3.2071
     7.1944   7.6063  13.5388  13.6932

          k = 0.0833 0.5292 0.0800 (  1421 PWs)   bands (ev):

    -9.1894  -9.1458  -7.1038  -7.0692  -1.4795  -1.4671   2.7992   3.1382
     7.2333   7.5256  13.5612  13.6703

          k = 0.0833 0.5292-0.1601 (  1422 PWs)   bands (ev):

    -9.1677  -9.1677  -7.0867  -7.0867  -1.4733  -1.4733   2.9693   2.9693
     7.3588   7.3588  13.6154  13.6154

          k = 0.1667 0.2887-0.0000 (  1415 PWs)   bands (ev):

   -12.0946 -12.0086  -2.3248  -2.3101  -0.9884  -0.9778  -0.3160   0.5579
    10.9508  11.6996  11.8941  14.8048

          k = 0.1667 0.2887 0.0800 (  1409 PWs)   bands (ev):

   -12.0822 -12.0214  -2.3226  -2.3122  -0.9869  -0.9794  -0.2008   0.4148
    11.3847  11.7276  11.8658  13.9814

          k = 0.1667 0.2887-0.1601 (  1416 PWs)   bands (ev):

   -12.0520 -12.0520  -2.3174  -2.3174  -0.9832  -0.9832   0.0933   0.0933
    11.7955  11.7955  12.5368  12.5368

          k = 0.1667 0.3849 0.0000 (  1421 PWs)   bands (ev):

   -10.9888 -10.9106  -4.0446  -4.0149  -2.0404  -2.0208   0.9725   1.7675
     9.7217   9.9926  12.4039  15.5831

          k = 0.1667 0.3849 0.0800 (  1421 PWs)   bands (ev):

   -10.9776 -10.9222  -4.0402  -4.0192  -2.0376  -2.0237   1.0784   1.6389
     9.7587   9.9509  12.8002  15.0445

          k = 0.1667 0.3849-0.1601 (  1418 PWs)   bands (ev):

   -10.9501 -10.9501  -4.0297  -4.0297  -2.0307  -2.0307   1.3475   1.3475
     9.8527   9.8527  13.8286  13.8287

          k = 0.1667 0.4811 0.0000 (  1420 PWs)   bands (ev):

    -9.6156  -9.5477  -5.9475  -5.9038  -2.6153  -2.5904   2.4692   3.1093
     7.7784   8.1303  14.2279  15.3644

          k = 0.1667 0.4811 0.0800 (  1424 PWs)   bands (ev):

    -9.6058  -9.5578  -5.9411  -5.9102  -2.6117  -2.5941   2.5574   3.0095
     7.8220   8.0717  14.5399  15.3782

          k = 0.1667 0.4811-0.1601 (  1426 PWs)   bands (ev):

    -9.5819  -9.5819  -5.9257  -5.9257  -2.6029  -2.6029   2.7776   2.7776
     7.9395   7.9395  15.2302  15.2303

          k = 0.1667 0.5773 0.0000 (  1423 PWs)   bands (ev):

    -8.3713  -8.3386  -7.3623  -7.3386  -2.7997  -2.7735   3.5077   3.8178
     6.8008   7.0113  15.2636  15.5195

          k = 0.1667 0.5773 0.0800 (  1420 PWs)   bands (ev):

    -8.3662  -8.3431  -7.3592  -7.3425  -2.7959  -2.7774   3.5588   3.7795
     6.8109   6.9617  15.2933  15.4707

          k = 0.1667 0.5773-0.1601 (  1432 PWs)   bands (ev):

    -8.3545  -8.3545  -7.3513  -7.3513  -2.7867  -2.7867   3.6755   3.6755
     6.8667   6.8667  15.3701  15.3701

          k = 0.2500 0.4330-0.0000 (  1429 PWs)   bands (ev):

    -9.7633  -9.6939  -5.0683  -5.0467  -3.5081  -3.4917   2.3630   3.0530
     8.1189   8.3759  14.0263  16.1002

          k = 0.2500 0.4330 0.0800 (  1425 PWs)   bands (ev):

    -9.7533  -9.7042  -5.0651  -5.0498  -3.5058  -3.4942   2.4565   2.9434
     8.1564   8.3378  14.3130  15.7327

          k = 0.2500 0.4330-0.1601 (  1426 PWs)   bands (ev):

    -9.7289  -9.7289  -5.0574  -5.0574  -3.5002  -3.5002   2.6920   2.6920
     8.2469   8.2469  15.0013  15.0013

          k = 0.2500 0.5292 0.0000 (  1425 PWs)   bands (ev):

    -8.3428  -8.2874  -6.4861  -6.4496  -4.2161  -4.1885   3.8428   4.3198
     6.6194   6.8605  15.9276  16.2008

          k = 0.2500 0.5292 0.0800 (  1433 PWs)   bands (ev):

    -8.3347  -8.2956  -6.4808  -6.4550  -4.2122  -4.1927   3.9122   4.2503
     6.6485   6.8193  15.7396  15.9393

          k = 0.2500 0.5292-0.1601 (  1442 PWs)   bands (ev):

    -8.3152  -8.3152  -6.4680  -6.4680  -4.2026  -4.2025   4.0811   4.0811
     6.7279   6.7279  15.6790  15.6790

          k = 0.3333 0.5773-0.0000 (  1443 PWs)   bands (ev):

    -7.1346  -7.1057  -7.1057  -7.0786  -5.0907  -5.0907   5.1512   5.4324
     5.4324   5.7408  16.0115  16.0115

          k = 0.3333 0.5773 0.0800 (  1434 PWs)   bands (ev):

    -7.1265  -7.1056  -7.1056  -7.0869  -5.0909  -5.0909   5.2317   5.4356
     5.4356   5.6479  15.7101  15.7101

          k = 0.3333 0.5773-0.1601 (  1434 PWs)   bands (ev):

    -7.1068  -7.1068  -7.1055  -7.1055  -5.0911  -5.0911   5.4337   5.4337
     5.4388   5.4388  15.5006  15.5006

     the Fermi energy is     5.4354 ev

!    total energy              =     -73.62166085 Ry

     total all-electron energy =      -304.678052 Ry
     estimated scf accuracy    <          4.5E-09 Ry
     smearing contrib. (-TS)   =      -0.00020381 Ry
     internal energy E=F+TS    =     -73.62145705 Ry

     The total energy is F=E-TS. E is the sum of the following terms:
     one-electron contribution =     -21.80021550 Ry
     hartree contribution      =      18.38939613 Ry
     xc contribution           =     -18.61906521 Ry
     ewald contribution        =     -27.15559239 Ry
     one-center paw contrib.   =     -24.43598008 Ry

     convergence has been achieved in   6 iterations

     Forces acting on atoms (cartesian axes, Ry/au):

     atom    1 type  1   force =    -0.00000000   -0.00000000    0.00000000
     atom    2 type  1   force =     0.00000000    0.00000000   -0.00000000
     atom    3 type  1   force =     0.00000000   -0.00000000   -0.00000000
     atom    4 type  1   force =    -0.00000000   -0.00000000    0.00000000

     Total force =     0.000000     Total SCF correction =     0.000000


     Computing stress (Cartesian axis) and pressure

          total   stress  (Ry/bohr**3)                   (kbar)     P=      -12.86
  -0.00005162  -0.00000000  -0.00000000           -7.59       -0.00       -0.00
  -0.00000000  -0.00005162   0.00000000           -0.00       -7.59        0.00
  -0.00000000   0.00000000  -0.00015895           -0.00        0.00      -23.38

     Energy error            =      1.8E-04
     Gradient error          =      6.1E-23
     Cell gradient error     =      1.6E-04


     number of scf cycles    =   4
     number of bfgs steps    =   3

     enthalpy old            =     -73.6214831779 Ry
     enthalpy new            =     -73.6216608524 Ry

     CASE: enthalpy_new < enthalpy_old

     new trust radius        =       0.0145926845 bohr
     new conv_thr            =       0.0000000100 Ry

     new unit-cell volume =    273.24258 a.u.^3 (    40.49037 Ang^3 )
     density =      1.97032 g/cm^3

CELL_PARAMETERS (angstrom)
   2.468374526   0.000000000   0.000000000
  -1.234187763   2.137675361  -0.000000000
  -0.000000000   0.000000000   7.673596603

ATOMIC_POSITIONS (angstrom)
C            -0.0000000000       -0.0000000000        1.9183989049
C             0.0000000000       -0.0000000000        5.7551976981
C             0.0000000001        1.4251165740        1.9183989049
C             1.2341877635        0.7125587874        5.7551976981



     Writing output data file ./C.save/
     NEW-OLD atomic charge density approx. for the potential

     Check: negative core charge=   -0.000010
     extrapolated charge   15.94218, renormalised to   16.00000

     total cpu time spent up to now is      121.9 secs

     Self-consistent Calculation

     iteration #  1     ecut=    45.00 Ry     beta= 0.70
     Davidson diagonalization with overlap
     ethr =  1.00E-06,  avg # of iterations =  2.9

     total cpu time spent up to now is      123.4 secs

     total energy              =     -73.62164183 Ry
     estimated scf accuracy    <       0.00007905 Ry

     iteration #  2     ecut=    45.00 Ry     beta= 0.70
     Davidson diagonalization with overlap
     ethr =  4.94E-07,  avg # of iterations =  3.5

     total cpu time spent up to now is      125.0 secs

     total energy              =     -73.62184887 Ry
     estimated scf accuracy    <       0.00012349 Ry

     iteration #  3     ecut=    45.00 Ry     beta= 0.70
     Davidson diagonalization with overlap
     ethr =  4.94E-07,  avg # of iterations =  1.4

     total cpu time spent up to now is      126.1 secs

     total energy              =     -73.62182797 Ry
     estimated scf accuracy    <       0.00003536 Ry

     iteration #  4     ecut=    45.00 Ry     beta= 0.70
     Davidson diagonalization with overlap
     ethr =  2.21E-07,  avg # of iterations =  2.1

     total cpu time spent up to now is      127.4 secs

     total energy              =     -73.62183662 Ry
     estimated scf accuracy    <       0.00000128 Ry

     iteration #  5     ecut=    45.00 Ry     beta= 0.70
     Davidson diagonalization with overlap
     ethr =  7.98E-09,  avg # of iterations =  1.0

     total cpu time spent up to now is      128.5 secs

     total energy              =     -73.62183665 Ry
     estimated scf accuracy    <       0.00000031 Ry

     iteration #  6     ecut=    45.00 Ry     beta= 0.70
     Davidson diagonalization with overlap
     ethr =  1.96E-09,  avg # of iterations =  1.0

     total cpu time spent up to now is      129.5 secs

     total energy              =     -73.62183650 Ry
     estimated scf accuracy    <       0.00000024 Ry

     iteration #  7     ecut=    45.00 Ry     beta= 0.70
     Davidson diagonalization with overlap
     ethr =  1.48E-09,  avg # of iterations =  2.0

     total cpu time spent up to now is      130.8 secs

     End of self-consistent calculation

          k = 0.0000 0.0000 0.0000 (  1375 PWs)   bands (ev):

   -13.9951 -13.8913  -2.6213  -1.6177   2.3870   2.3870   2.3912   2.3912
     8.4930  12.9053  13.8066  13.8068

          k =-0.0000 0.0000 0.0804 (  1387 PWs)   bands (ev):

   -13.9802 -13.9069  -2.4908  -1.7847   2.3876   2.3876   2.3906   2.3906
     8.9784  11.9289  13.8088  13.8090

          k = 0.0000-0.0000-0.1608 (  1364 PWs)   bands (ev):

   -13.9438 -13.9438  -2.1556  -2.1556   2.3891   2.3891   2.3891   2.3891
    10.2692  10.2692  13.8143  13.8143

          k =-0.0000 0.0962-0.0000 (  1403 PWs)   bands (ev):

   -13.8314 -13.7289  -2.4221  -1.4263   1.7443   1.7527   2.0518   2.0587
     8.7026  13.0885  13.8641  13.8979

          k =-0.0000 0.0962 0.0804 (  1392 PWs)   bands (ev):

   -13.8167 -13.7442  -2.2925  -1.5918   1.7455   1.7515   2.0529   2.0577
     9.1851  12.1167  13.8754  13.8946

          k =-0.0000 0.0962-0.1608 (  1378 PWs)   bands (ev):

   -13.7807 -13.7807  -1.9598  -1.9598   1.7485   1.7485   2.0553   2.0553
    10.4681  10.4681  13.8860  13.8860

          k =-0.0000 0.1924-0.0000 (  1405 PWs)   bands (ev):

   -13.3422 -13.2432  -1.8292  -0.8578   0.1236   0.1411   1.2669   1.2770
     9.3319  13.6092  13.7973  13.8728

          k =-0.0000 0.1924 0.0804 (  1400 PWs)   bands (ev):

   -13.3279 -13.2580  -1.7024  -1.0187   0.1262   0.1386   1.2684   1.2755
     9.8048  12.6649  13.8271  13.8668

          k =-0.0000 0.1924-0.1608 (  1400 PWs)   bands (ev):

   -13.2933 -13.2933  -1.3774  -1.3774   0.1324   0.1324   1.2719   1.2719
    11.0610  11.0610  13.8472  13.8472

          k =-0.0000 0.2885-0.0000 (  1407 PWs)   bands (ev):

   -12.5333 -12.4402  -1.9578  -1.9292  -0.8594   0.0663   0.3943   0.4064
    10.3783  12.5384  12.7924  13.5098

          k =-0.0000 0.2885 0.0804 (  1402 PWs)   bands (ev):

   -12.5199 -12.4541  -1.9537  -1.9334  -0.7380  -0.0861   0.3961   0.4046
    10.8251  12.5735  12.7210  13.4530

          k =-0.0000 0.2885-0.1608 (  1410 PWs)   bands (ev):

   -12.4873 -12.4873  -1.9436  -1.9436  -0.4273  -0.4273   0.4003   0.4003
    11.9625  11.9626  12.7783  12.7783

          k =-0.0000 0.3847-0.0000 (  1414 PWs)   bands (ev):

   -11.4172 -11.3322  -4.1471  -4.1067  -0.3340  -0.3207   0.4434   1.2885
    10.1640  10.5786  11.8282  13.1771

          k =-0.0000 0.3847 0.0804 (  1407 PWs)   bands (ev):

   -11.4050 -11.3449  -4.1412  -4.1126  -0.3320  -0.3226   0.5555   1.1511
    10.2055  10.5022  12.2775  13.1884

          k =-0.0000 0.3847-0.1608 (  1410 PWs)   bands (ev):

   -11.3752 -11.3752  -4.1269  -4.1269  -0.3273  -0.3273   0.8408   0.8408
    10.3392  10.3392  13.1387  13.1387

          k =-0.0000 0.4809-0.0000 (  1414 PWs)   bands (ev):

   -10.0248  -9.9506  -6.2357  -6.1848  -0.8039  -0.7900   1.9420   2.6142
     7.9977   8.4948  12.9219  13.0500

          k =-0.0000 0.4809 0.0804 (  1411 PWs)   bands (ev):

   -10.0141  -9.9616  -6.2283  -6.1923  -0.8018  -0.7920   2.0346   2.5094
     8.0520   8.4041  12.9441  13.0361

          k =-0.0000 0.4809-0.1608 (  1410 PWs)   bands (ev):

    -9.9881  -9.9881  -6.2104  -6.2104  -0.7969  -0.7969   2.2659   2.2659
     8.2104   8.2104  12.9924  12.9924

          k = 0.0000-0.5771 0.0000 (  1424 PWs)   bands (ev):

    -8.7518  -8.7160  -7.7181  -7.6900  -0.9653  -0.9511   2.9403   3.2661
     6.9681   7.3696  12.8414  12.9869

          k = 0.0000-0.5771 0.0804 (  1414 PWs)   bands (ev):

    -8.7463  -8.7209  -7.7145  -7.6946  -0.9632  -0.9532   2.9935   3.2253
     6.9967   7.2812  12.8624  12.9652

          k = 0.0000-0.5771-0.1608 (  1420 PWs)   bands (ev):

    -8.7334  -8.7334  -7.7051  -7.7051  -0.9582  -0.9582   3.1155   3.1155
     7.1094   7.1094  12.9133  12.9133

          k = 0.0833 0.1443 0.0000 (  1401 PWs)   bands (ev):

   -13.5049 -13.4048  -2.0259  -1.0462   0.7238   0.7323   1.3843   1.3902
     9.1225  13.4482  14.1446  14.2029

          k = 0.0833 0.1443 0.0804 (  1403 PWs)   bands (ev):

   -13.4906 -13.4198  -1.8982  -1.2087   0.7251   0.7310   1.3852   1.3893
     9.5990  12.4898  14.1681  14.1974

          k = 0.0833 0.1443-0.1608 (  1404 PWs)   bands (ev):

   -13.4555 -13.4555  -1.5705  -1.5705   0.7281   0.7281   1.3872   1.3872
    10.8655  10.8655  14.1844  14.1844

          k = 0.0833 0.2405-0.0000 (  1412 PWs)   bands (ev):

   -12.8559 -12.7605  -1.2436  -0.9717  -0.9526  -0.2984   0.3947   0.4063
     9.9621  13.4299  13.5866  14.1897

          k = 0.0833 0.2405 0.0804 (  1405 PWs)   bands (ev):

   -12.8422 -12.7747  -1.1200  -0.9689  -0.9553  -0.4545   0.3964   0.4046
    10.4241  13.1696  13.4668  13.6388

          k = 0.0833 0.2405-0.1608 (  1404 PWs)   bands (ev):

   -12.8088 -12.8088  -0.9623  -0.9623  -0.8030  -0.8030   0.4005   0.4005
    11.6485  11.6486  13.5315  13.5315

          k = 0.0833 0.3366-0.0000 (  1409 PWs)   bands (ev):

   -11.8933 -11.8049  -3.0308  -2.9982  -0.4860  -0.4702  -0.1021   0.7826
    11.2146  11.2319  11.5357  14.0230

          k = 0.0833 0.3366 0.0804 (  1408 PWs)   bands (ev):

   -11.8805 -11.8181  -3.0260  -3.0030  -0.4837  -0.4725   0.0146   0.6377
    11.2325  11.4728  11.7097  13.9850

          k = 0.0833 0.3366-0.1608 (  1402 PWs)   bands (ev):

   -11.8495 -11.8495  -3.0145  -3.0145  -0.4781  -0.4781   0.3123   0.3123
    11.3514  11.3514  12.8596  12.8596

          k = 0.0833 0.4328-0.0000 (  1418 PWs)   bands (ev):

   -10.6361 -10.5569  -5.1413  -5.0966  -1.1171  -1.0994   1.3263   2.0990
     8.9677   9.4027  12.8573  13.7377

          k = 0.0833 0.4328 0.0804 (  1419 PWs)   bands (ev):

   -10.6247 -10.5687  -5.1349  -5.1032  -1.1145  -1.1020   1.4301   1.9751
     9.0189   9.3278  13.2572  13.7557

          k = 0.0833 0.4328-0.1608 (  1414 PWs)   bands (ev):

   -10.5969 -10.5969  -5.1191  -5.1191  -1.1083  -1.1083   1.6926   1.6926
     9.1620   9.1620  13.7639  13.7639

          k = 0.0833 0.5290-0.0000 (  1418 PWs)   bands (ev):

    -9.1590  -9.0948  -7.0707  -7.0196  -1.4437  -1.4252   2.7591   3.2506
     7.2245   7.6462  13.5586  13.7185

          k = 0.0833 0.5290 0.0804 (  1421 PWs)   bands (ev):

    -9.1497  -9.1043  -7.0634  -7.0273  -1.4410  -1.4279   2.8314   3.1798
     7.2637   7.5631  13.5818  13.6948

          k = 0.0833 0.5290-0.1608 (  1422 PWs)   bands (ev):

    -9.1271  -9.1271  -7.0455  -7.0455  -1.4345  -1.4345   3.0063   3.0063
     7.3919   7.3919  13.6378  13.6378

          k = 0.1666 0.2885 0.0000 (  1415 PWs)   bands (ev):

   -12.0531 -11.9635  -2.2884  -2.2730  -0.9501  -0.9389  -0.2863   0.6109
    11.0094  11.7237  11.9247  14.9053

          k = 0.1666 0.2885 0.0804 (  1409 PWs)   bands (ev):

   -12.0402 -11.9769  -2.2861  -2.2752  -0.9485  -0.9406  -0.1682   0.4637
    11.4493  11.7527  11.8955  14.0744

          k = 0.1666 0.2885-0.1608 (  1416 PWs)   bands (ev):

   -12.0088 -12.0088  -2.2807  -2.2806  -0.9446  -0.9446   0.1335   0.1335
    11.8228  11.8228  12.6158  12.6158

          k = 0.1666 0.3847-0.0000 (  1421 PWs)   bands (ev):

   -10.9480 -10.8665  -4.0073  -3.9762  -2.0015  -1.9809   1.0016   1.8181
     9.7474  10.0266  12.4593  15.6027

          k = 0.1666 0.3847 0.0804 (  1421 PWs)   bands (ev):

   -10.9363 -10.8786  -4.0028  -3.9808  -1.9985  -1.9840   1.1103   1.6858
     9.7855   9.9837  12.8608  15.1216

          k = 0.1666 0.3847-0.1608 (  1418 PWs)   bands (ev):

   -10.9076 -10.9076  -3.9918  -3.9918  -1.9913  -1.9913   1.3864   1.3864
     9.8824   9.8824  13.9002  13.9003

          k = 0.1666 0.4809-0.0000 (  1420 PWs)   bands (ev):

    -9.5758  -9.5049  -5.9088  -5.8631  -2.5762  -2.5501   2.4982   3.1559
     7.8062   8.1678  14.2786  15.3830

          k = 0.1666 0.4809 0.0804 (  1424 PWs)   bands (ev):

[...]
        k(   29) = (   0.0834124   0.3371072   0.0931670), wk =   0.0833333
        k(   30) = (   0.0834124   0.3371072  -0.1863341), wk =   0.0416667
        k(   31) = (   0.0834124   0.4334236   0.0000000), wk =   0.0416667
        k(   32) = (   0.0834124   0.4334236   0.0931670), wk =   0.0833333
        k(   33) = (   0.0834124   0.4334236  -0.1863341), wk =   0.0416667
        k(   34) = (   0.0834124   0.5297399   0.0000000), wk =   0.0416667
        k(   35) = (   0.0834124   0.5297399   0.0931670), wk =   0.0833333
        k(   36) = (   0.0834124   0.5297399  -0.1863341), wk =   0.0416667
        k(   37) = (   0.1668248   0.2889491  -0.0000000), wk =   0.0208333
        k(   38) = (   0.1668248   0.2889491   0.0931670), wk =   0.0416667
        k(   39) = (   0.1668248   0.2889491  -0.1863341), wk =   0.0208333
        k(   40) = (   0.1668248   0.3852654   0.0000000), wk =   0.0416667
        k(   41) = (   0.1668248   0.3852654   0.0931670), wk =   0.0833333
        k(   42) = (   0.1668248   0.3852654  -0.1863341), wk =   0.0416667
        k(   43) = (   0.1668248   0.4815817   0.0000000), wk =   0.0416667
        k(   44) = (   0.1668248   0.4815817   0.0931670), wk =   0.0833333
        k(   45) = (   0.1668248   0.4815817  -0.1863341), wk =   0.0416667
        k(   46) = (   0.1668248   0.5778981   0.0000000), wk =   0.0208333
        k(   47) = (   0.1668248   0.5778981   0.0931670), wk =   0.0416667
        k(   48) = (   0.1668248   0.5778981  -0.1863341), wk =   0.0208333
        k(   49) = (   0.2502372   0.4334236  -0.0000000), wk =   0.0208333
        k(   50) = (   0.2502372   0.4334236   0.0931670), wk =   0.0416667
        k(   51) = (   0.2502372   0.4334236  -0.1863341), wk =   0.0208333
        k(   52) = (   0.2502372   0.5297399   0.0000000), wk =   0.0416667
        k(   53) = (   0.2502372   0.5297399   0.0931670), wk =   0.0833333
        k(   54) = (   0.2502372   0.5297399  -0.1863341), wk =   0.0416667
        k(   55) = (   0.3336496   0.5778981  -0.0000000), wk =   0.0069444
        k(   56) = (   0.3336496   0.5778981   0.0931670), wk =   0.0138889
        k(   57) = (   0.3336496   0.5778981  -0.1863341), wk =   0.0069444

     Dense  grid:    27033 G-vectors     FFT dimensions: (  30,  30,  80)

     Smooth grid:     9569 G-vectors     FFT dimensions: (  20,  20,  54)

     Estimated max dynamical RAM per process >      13.79 MB

     Estimated total dynamical RAM >      55.15 MB

     Check: negative core charge=   -0.000012

     Initial potential from superposition of free atoms

     starting charge   15.99983, renormalised to   16.00000
     Starting wfcs are   16 randomized atomic wfcs
     Checking if some PAW data can be deallocated... 

     total cpu time spent up to now is      285.2 secs

     Self-consistent Calculation

     iteration #  1     ecut=    45.00 Ry     beta= 0.70
     Davidson diagonalization with overlap
     c_bands:  1 eigenvalues not converged
     c_bands:  1 eigenvalues not converged
     c_bands:  1 eigenvalues not converged
     c_bands:  1 eigenvalues not converged
     c_bands:  1 eigenvalues not converged
     c_bands:  1 eigenvalues not converged
     c_bands:  1 eigenvalues not converged
     c_bands:  2 eigenvalues not converged
     c_bands:  2 eigenvalues not converged
     c_bands:  2 eigenvalues not converged
     c_bands:  1 eigenvalues not converged
     c_bands:  1 eigenvalues not converged
     c_bands:  2 eigenvalues not converged
     c_bands:  1 eigenvalues not converged
     c_bands:  1 eigenvalues not converged
     ethr =  1.00E-06,  avg # of iterations = 14.2

     total cpu time spent up to now is      289.0 secs

     total energy              =     -73.56392128 Ry
     estimated scf accuracy    <       0.38853547 Ry

     iteration #  2     ecut=    45.00 Ry     beta= 0.70
     Davidson diagonalization with overlap
     ethr =  2.43E-03,  avg # of iterations =  2.4

     total cpu time spent up to now is      290.2 secs

     total energy              =     -73.62538301 Ry
     estimated scf accuracy    <       0.00501348 Ry

     iteration #  3     ecut=    45.00 Ry     beta= 0.70
     Davidson diagonalization with overlap
     ethr =  3.13E-05,  avg # of iterations =  4.1

     total cpu time spent up to now is      291.6 secs

     total energy              =     -73.62577713 Ry
     estimated scf accuracy    <       0.00040431 Ry

     iteration #  4     ecut=    45.00 Ry     beta= 0.70
     Davidson diagonalization with overlap
     c_bands:  1 eigenvalues not converged
     ethr =  2.53E-06,  avg # of iterations =  2.6

     total cpu time spent up to now is      292.7 secs

     total energy              =     -73.62580114 Ry
     estimated scf accuracy    <       0.00000772 Ry

     iteration #  5     ecut=    45.00 Ry     beta= 0.70
     Davidson diagonalization with overlap
     ethr =  4.83E-08,  avg # of iterations =  3.3

     total cpu time spent up to now is      294.1 secs

     total energy              =     -73.62580417 Ry
     estimated scf accuracy    <       0.00000081 Ry

     iteration #  6     ecut=    45.00 Ry     beta= 0.70
     Davidson diagonalization with overlap
     ethr =  5.08E-09,  avg # of iterations =  2.0

     total cpu time spent up to now is      295.5 secs

     total energy              =     -73.62580438 Ry
     estimated scf accuracy    <       0.00000002 Ry

     iteration #  7     ecut=    45.00 Ry     beta= 0.70
     Davidson diagonalization with overlap
     ethr =  1.09E-10,  avg # of iterations =  2.4

     total cpu time spent up to now is      298.1 secs

     End of self-consistent calculation

          k = 0.0000 0.0000 0.0000 (  1155 PWs)   bands (ev):

   -12.5421 -12.1977  -1.5692   0.6039   3.9999   3.9999   4.0213   4.0214
    11.1776  15.4251  15.4255  15.4855

          k =-0.0000 0.0000 0.0932 (  1173 PWs)   bands (ev):

   -12.4948 -12.2516  -1.3000   0.2174   4.0030   4.0030   4.0181   4.0181
    11.9683  15.4336  15.4336  15.4762

          k = 0.0000-0.0000-0.1863 (  1178 PWs)   bands (ev):

   -12.3765 -12.3765  -0.5964  -0.5964   4.0105   4.0106   4.0106   4.0106
    13.9551  15.4543  15.4546  15.4546

          k = 0.0000 0.0963 0.0000 (  1179 PWs)   bands (ev):

   -12.3769 -12.0358  -1.3672   0.7915   3.3488   3.3876   3.6587   3.6913
    11.3766  15.4772  15.5716  16.1158

          k = 0.0000 0.0963 0.0932 (  1176 PWs)   bands (ev):

   -12.3299 -12.0891  -1.0996   0.4080   3.3545   3.3819   3.6634   3.6865
    12.1609  15.4785  15.5590  16.1243

          k = 0.0000 0.0963-0.1863 (  1176 PWs)   bands (ev):

   -12.2127 -12.2127  -0.4003  -0.4003   3.3682   3.3682   3.6750   3.6750
    14.1257  14.1258  15.5370  15.5370

          k = 0.0000 0.1926 0.0000 (  1191 PWs)   bands (ev):

   -11.8828 -11.5520  -0.7656   1.3479   1.7103   1.7843   2.8644   2.9111
    11.9753  15.3827  15.5851  16.1927

          k = 0.0000 0.1926 0.0932 (  1187 PWs)   bands (ev):

   -11.8372 -11.6036  -0.5029   0.9737   1.7212   1.7733   2.8713   2.9043
    12.7378  15.3858  15.5505  16.2621

          k = 0.0000 0.1926-0.1863 (  1190 PWs)   bands (ev):

   -11.7234 -11.7234   0.1828   0.1828   1.7472   1.7472   2.8877   2.8877
    14.6143  14.6143  15.5266  15.5266

          k = 0.0000 0.2889 0.0000 (  1183 PWs)   bands (ev):

   -11.0658 -10.7520  -0.3920  -0.2782   0.2206   1.9846   2.0400   2.2481
    12.9684  13.9556  14.6663  15.0584

          k = 0.0000 0.2889 0.0932 (  1194 PWs)   bands (ev):

   -11.0225 -10.8007  -0.3758  -0.2953   0.4743   1.8922   1.9926   2.0318
    13.6141  14.1241  14.5257  15.1012

          k = 0.0000 0.2889-0.1863 (  1188 PWs)   bands (ev):

   -10.9142 -10.9142  -0.3359  -0.3359   1.1348   1.1348   2.0122   2.0122
    14.2176  14.2176  15.1002  15.1003

          k = 0.0000 0.3853 0.0000 (  1210 PWs)   bands (ev):

    -9.9386  -9.6479  -2.6023  -2.4489   1.2513   1.3118   1.5531   3.4223
    11.5063  12.5078  14.2970  14.7190

          k = 0.0000 0.3853 0.0932 (  1193 PWs)   bands (ev):

    -9.8981  -9.6928  -2.5805  -2.4720   1.2601   1.3029   1.7907   3.1011
    11.6123  12.3270  14.6958  14.8607

          k = 0.0000 0.3853-0.1863 (  1194 PWs)   bands (ev):

    -9.7977  -9.7977  -2.5269  -2.5269   1.2814   1.2814   2.4057   2.4057
    11.9365  11.9365  14.8550  14.8550

          k = 0.0000 0.4816 0.0000 (  1202 PWs)   bands (ev):

    -8.5305  -8.2716  -4.7098  -4.5230   0.7785   0.8416   3.1149   4.6177
     9.3643  10.4594  14.4189  14.8454

          k = 0.0000 0.4816 0.0932 (  1191 PWs)   bands (ev):

    -8.4942  -8.3113  -4.6835  -4.5515   0.7877   0.8323   3.3199   4.3830
     9.4569  10.2391  14.4816  14.7838

          k = 0.0000 0.4816-0.1863 (  1196 PWs)   bands (ev):

    -8.4045  -8.4045  -4.6186  -4.6186   0.8099   0.8099   3.8358   3.8358
     9.7884   9.7885  14.6320  14.6320

          k =-0.0000-0.5779-0.0000 (  1208 PWs)   bands (ev):

    -7.2101  -7.0819  -6.1605  -6.0640   0.6162   0.6801   4.2326   4.9871
     8.5501   9.2810  14.3299  14.7823

          k =-0.0000-0.5779 0.0932 (  1194 PWs)   bands (ev):

    -7.1881  -7.0967  -6.1531  -6.0841   0.6255   0.6707   4.3759   4.9251
     8.5291   9.0613  14.3930  14.7136

          k =-0.0000-0.5779-0.1863 (  1204 PWs)   bands (ev):

    -7.1388  -7.1388  -6.1250  -6.1250   0.6480   0.6480   4.6903   4.6903
     8.6789   8.6789  14.5499  14.5499

          k = 0.0834 0.1445-0.0000 (  1179 PWs)   bands (ev):

   -12.0471 -11.7130  -0.9653   1.1638   2.3260   2.3633   2.9903   3.0178
    11.7767  15.7548  15.8830  16.7261

          k = 0.0834 0.1445 0.0932 (  1188 PWs)   bands (ev):

   -12.0012 -11.7651  -0.7010   0.7864   2.3318   2.3581   2.9939   3.0133
    12.5477  15.7398  15.8641  16.7599

          k = 0.0834 0.1445-0.1863 (  1194 PWs)   bands (ev):

   -11.8862 -11.8862  -0.0106  -0.0106   2.3452   2.3452   3.0031   3.0032
    14.4697  14.4698  15.8406  15.8407

          k = 0.0834 0.2408 0.0000 (  1198 PWs)   bands (ev):

   -11.3917 -11.0711  -0.1706   0.6106   0.6892   1.8938   1.9867   2.0377
    12.5772  14.8956  15.3997  15.8466

          k = 0.0834 0.2408 0.0932 (  1192 PWs)   bands (ev):

   -11.3474 -11.1210   0.0865   0.6220   0.6779   1.5302   1.9939   2.0300
    13.3147  14.9593  15.2983  15.8752

          k = 0.0834 0.2408-0.1863 (  1188 PWs)   bands (ev):

   -11.2370 -11.2370   0.6473   0.6473   0.7607   0.7607   2.0116   2.0116
    14.9909  14.9909  15.2570  15.2570

          k = 0.0834 0.3371 0.0000 (  1193 PWs)   bands (ev):

   -10.4194 -10.1189  -1.4723  -1.3457   0.9931   1.0958   1.1639   2.9414
    12.6187  13.3934  13.7653  15.5568

          k = 0.0834 0.3371 0.0932 (  1196 PWs)   bands (ev):

   -10.3778 -10.1654  -1.4542  -1.3647   1.1055   1.1537   1.2385   2.6025
    12.7022  13.2614  14.4724  15.6024

          k = 0.0834 0.3371-0.1863 (  1188 PWs)   bands (ev):

   -10.2740 -10.2740  -1.4099  -1.4099   1.1295   1.1295   1.8759   1.8759
    12.9640  12.9640  15.6276  15.6276

          k = 0.0834 0.4334 0.0000 (  1204 PWs)   bands (ev):

    -9.1492  -8.8753  -3.6044  -3.4372   0.4593   0.5353   2.4630   4.1847
    10.3118  11.3240  15.1563  15.3596

          k = 0.0834 0.4334 0.0932 (  1198 PWs)   bands (ev):

    -9.1110  -8.9175  -3.5807  -3.4624   0.4703   0.5240   2.6864   3.8966
    10.4212  11.1426  15.2786  15.5271

          k = 0.0834 0.4334-0.1863 (  1206 PWs)   bands (ev):

    -9.0162  -9.0162  -3.5223  -3.5223   0.4969   0.4969   3.2600   3.2600
    10.7483  10.7483  15.4280  15.4280

          k = 0.0834 0.5297 0.0000 (  1208 PWs)   bands (ev):

    -7.6501  -7.4230  -5.5471  -5.3622   0.1304   0.2094   3.9957   5.1004
     8.7102   9.5608  15.0482  15.5184

          k = 0.0834 0.5297 0.0932 (  1200 PWs)   bands (ev):

    -7.6179  -7.4573  -5.5218  -5.3910   0.1418   0.1977   4.1683   4.9616
     8.7390   9.3575  15.1126  15.4452

          k = 0.0834 0.5297-0.1863 (  1198 PWs)   bands (ev):

    -7.5386  -7.5386  -5.4581  -5.4581   0.1696   0.1696   4.5797   4.5797
     8.9657   8.9657  15.2734  15.2734

          k = 0.1668 0.2889-0.0000 (  1197 PWs)   bands (ev):

   -10.5808 -10.2770  -0.7032  -0.6404   0.6380   0.6837   0.8043   2.7776
    13.1595  13.5773  13.6976  16.9980

          k = 0.1668 0.2889 0.0932 (  1199 PWs)   bands (ev):

   -10.5387 -10.3240  -0.6936  -0.6492   0.6436   0.6760   1.0522   2.4331
    13.2358  13.6084  14.2799  16.9938

          k = 0.1668 0.2889-0.1863 (  1192 PWs)   bands (ev):

   -10.4338 -10.4338  -0.6710  -0.6709   0.6588   0.6588   1.6966   1.6966
    13.4211  13.4211  15.9655  15.9656

          k = 0.1668 0.3853 0.0000 (  1197 PWs)   bands (ev):

    -9.4645  -9.1838  -2.4478  -2.3281  -0.4318  -0.3490   2.1225   3.9375
    11.1369  11.8357  14.9507  17.1127

          k = 0.1668 0.3853 0.0932 (  1203 PWs)   bands (ev):

    -9.4254  -9.2271  -2.4305  -2.3458  -0.4205  -0.3618   2.3541   3.6270
    11.2325  11.7277  15.5555  17.1503

          k = 0.1668 0.3853-0.1863 (  1198 PWs)   bands (ev):

    -9.3283  -9.3283  -2.3883  -2.3883  -0.3919  -0.3919   2.9526   2.9526
    11.4751  11.4751  16.8682  16.8682

          k = 0.1668 0.4816 0.0000 (  1204 PWs)   bands (ev):

    -8.0765  -7.8277  -4.3740  -4.2050  -1.0161  -0.9119   3.6786   5.1585
     9.1982  10.0239  16.6189  16.8935

          k = 0.1668 0.4816 0.0932 (  1208 PWs)   bands (ev):

    -8.0417  -7.8658  -4.3501  -4.2306  -1.0014  -0.9277   3.8795   4.9257
     9.2856   9.8777  16.8969  16.9995

          k = 0.1668 0.4816-0.1863 (  1202 PWs)   bands (ev):

    -7.9553  -7.9553  -4.2912  -4.2912  -0.9650  -0.9650   4.3861   4.3861
     9.5545   9.5545  17.0468  17.0469

          k = 0.1668 0.5779 0.0000 (  1213 PWs)   bands (ev):

    -6.7880  -6.6649  -5.7565  -5.6714  -1.2028  -1.0935   4.8315   5.5697
     8.4935   8.8154  16.7571  17.3731

          k = 0.1668 0.5779 0.0932 (  1209 PWs)   bands (ev):

    -6.7670  -6.6793  -5.7502  -5.6893  -1.1872  -1.1099   4.9748   5.5143
     8.4377   8.6908  16.8174  17.2385

          k = 0.1668 0.5779-0.1863 (  1212 PWs)   bands (ev):

    -6.7198  -6.7198  -5.7256  -5.7256  -1.1491  -1.1491   5.2879   5.2879
     8.4760   8.4760  16.9816  16.9816

          k = 0.2502 0.4334-0.0000 (  1201 PWs)   bands (ev):

    -8.2263  -7.9728  -3.4613  -3.3739  -1.8972  -1.8325   3.5546   5.1527
     9.5304  10.2031  16.4630  18.8516

          k = 0.2502 0.4334 0.0932 (  1213 PWs)   bands (ev):

    -8.1909  -8.0117  -3.4478  -3.3859  -1.8899  -1.8440   3.7642   4.8886
     9.6298  10.1024  16.8004  18.1699

          k = 0.2502 0.4334-0.1863 (  1210 PWs)   bands (ev):

    -8.1029  -8.1029  -3.4161  -3.4161  -1.8690  -1.8690   4.2997   4.2998
     9.8665   9.8665  17.4379  17.4379

          k = 0.2502 0.5297 0.0000 (  1211 PWs)   bands (ev):

    -6.7855  -6.5780  -4.9016  -4.7611  -2.6252  -2.5152   5.1121   6.2239
     8.1051   8.7085  18.1504  18.7329

          k = 0.2502 0.5297 0.0932 (  1214 PWs)   bands (ev):

    -6.7559  -6.6092  -4.8819  -4.7824  -2.6106  -2.5328   5.2825   6.0812
     8.1594   8.5871  17.5667  17.8436

          k = 0.2502 0.5297-0.1863 (  1220 PWs)   bands (ev):

    -6.6834  -6.6834  -4.8329  -4.8329  -2.5731  -2.5731   5.6929   5.6929
     8.3435   8.3435  17.3674  17.3674

          k = 0.3336 0.5779-0.0000 (  1203 PWs)   bands (ev):

    -5.5794  -5.4678  -5.4678  -5.3613  -3.4638  -3.4638   6.3452   7.0205
     7.0205   7.8481  18.1158  18.1158

          k = 0.3336 0.5779 0.0932 (  1218 PWs)   bands (ev):

    -5.5487  -5.4663  -5.4663  -5.3946  -3.4670  -3.4670   6.5398   7.0412
     7.0412   7.5961  17.4353  17.4353

          k = 0.3336 0.5779-0.1863 (  1212 PWs)   bands (ev):

    -5.4729  -5.4729  -5.4649  -5.4648  -3.4702  -3.4702   7.0400   7.0400
     7.0621   7.0621  17.0401  17.0401

     the Fermi energy is     7.0410 ev

!    total energy              =     -73.62580439 Ry

     total all-electron energy =      -304.682196 Ry
     estimated scf accuracy    <          1.8E-09 Ry
     smearing contrib. (-TS)   =      -0.00019408 Ry
     internal energy E=F+TS    =     -73.62561030 Ry

     The total energy is F=E-TS. E is the sum of the following terms:
     one-electron contribution =      -9.09559998 Ry
     hartree contribution      =      13.01712161 Ry
     xc contribution           =     -18.65151448 Ry
     ewald contribution        =     -34.45921694 Ry
     one-center paw contrib.   =     -24.43640052 Ry

     convergence has been achieved in   7 iterations

     Forces acting on atoms (cartesian axes, Ry/au):

     atom    1 type  1   force =    -0.00000000   -0.00000000    0.00000000
     atom    2 type  1   force =     0.00000000    0.00000000   -0.00000000
     atom    3 type  1   force =    -0.00000000   -0.00000000    0.00000000
     atom    4 type  1   force =     0.00000000   -0.00000000   -0.00000000

     Total force =     0.000000     Total SCF correction =     0.000000


     Computing stress (Cartesian axis) and pressure

          total   stress  (Ry/bohr**3)                   (kbar)     P=        0.32
   0.00000208   0.00000000   0.00000000            0.31        0.00        0.00
   0.00000000   0.00000208  -0.00000000            0.00        0.31       -0.00
   0.00000000  -0.00000000   0.00000228            0.00       -0.00        0.34


     Writing output data file ./C.save/

     init_run     :     78.68s CPU     78.83s WALL (       2 calls)
     electrons    :    164.64s CPU    175.73s WALL (      15 calls)
     update_pot   :     11.67s CPU     11.78s WALL (      13 calls)
     forces       :     10.03s CPU     10.11s WALL (      15 calls)
     stress       :     21.68s CPU     21.92s WALL (      15 calls)

     Called by init_run:
     wfcinit      :      0.72s CPU      0.84s WALL (       2 calls)
     potinit      :     76.99s CPU     77.01s WALL (       2 calls)
     hinit0       :      0.87s CPU      0.87s WALL (       2 calls)

     Called by electrons:
     c_bands      :    122.25s CPU    130.47s WALL (     130 calls)
     sum_band     :     15.41s CPU     17.04s WALL (     130 calls)
     v_of_rho     :     98.57s CPU     99.42s WALL (     142 calls)
     newd         :      1.42s CPU      1.54s WALL (     142 calls)
     PAW_pot      :      6.55s CPU      6.83s WALL (     155 calls)
     mix_rho      :      0.24s CPU      0.24s WALL (     130 calls)
     vdW_kernel   :     76.28s CPU     76.28s WALL (       1 calls)

     Called by c_bands:
     init_us_2    :      1.96s CPU      2.11s WALL (   17385 calls)
     cegterg      :    117.66s CPU    125.62s WALL (    7410 calls)

     Called by *egterg:
     cdiaghg      :     16.79s CPU     17.79s WALL (   23590 calls)
     h_psi        :     63.20s CPU     67.85s WALL (   24616 calls)
     s_psi        :      6.76s CPU      7.31s WALL (   24616 calls)
     g_psi        :      0.92s CPU      0.97s WALL (   17092 calls)

     Called by h_psi:
     h_psi:calbec :      9.01s CPU      9.74s WALL (   24616 calls)
     vloc_psi     :     47.03s CPU     50.36s WALL (   24616 calls)
     add_vuspsi   :      6.76s CPU      7.33s WALL (   24616 calls)

     General routines
     calbec       :     15.19s CPU     16.37s WALL (   37042 calls)
     fft          :     10.39s CPU     10.71s WALL (   11467 calls)
     ffts         :      0.05s CPU      0.05s WALL (     272 calls)
     fftw         :     49.93s CPU     53.73s WALL (  544148 calls)
     interpolate  :      0.13s CPU      0.13s WALL (     142 calls)

     Parallel routines
     fft_scatt_xy :      6.57s CPU      7.08s WALL (  555887 calls)
     fft_scatt_yz :     30.75s CPU     32.82s WALL (  555887 calls)

     PWSCF        :   4m48.27s CPU   5m 0.24s WALL


   This run was terminated on:  22:56:45  17Jun2023            

=------------------------------------------------------------------------------=
   JOB DONE.
=------------------------------------------------------------------------------=
