
     Program PWSCF v.6.7MaX starts on 17Jun2023 at 14:45: 4 

     This program is part of the open-source Quantum ESPRESSO suite
     for quantum simulation of materials; please cite
         "P. Giannozzi et al., J. Phys.:Condens. Matter 21 395502 (2009);
         "P. Giannozzi et al., J. Phys.:Condens. Matter 29 465901 (2017);
          URL http://www.quantum-espresso.org", 
     in publications or presentations arising from this work. More details at
     http://www.quantum-espresso.org/quote

     Parallel version (MPI), running on     4 processors

     MPI processes distributed on     1 nodes
     R & G space division:  proc/nbgrp/npool/nimage =       4
     Waiting for input...
     Reading input from standard input

     Current dimensions of program PWSCF are:
     Max number of different atomic species (ntypx) = 10
     Max number of k-points (npk) =  40000
     Max angular momentum in pseudopotentials (lmaxx) =  3

     IMPORTANT: XC functional enforced from input :
     Exchange-correlation= VDW-DF2-B86R
                           (   1   4  26   0   2   0   0)
     Any further DFT definition will be discarded
     Please, verify this is what you really want


     Subspace diagonalization in iterative solution of the eigenvalue problem:
     one sub-group per band group will be used
     scalapack distributed-memory algorithm (size of sub-group:  2*  2 procs)

     Found symmetry operation: I + ( -0.5000 -0.5000 -0.5000)
     This is a supercell, fractional translations are disabled
     Message from routine setup:
     using ibrav=0 with symmetry is DISCOURAGED, use correct ibrav instead

     Parallelization info
     --------------------
     sticks:   dense  smooth     PW     G-vecs:    dense   smooth      PW
     Min         300     148     46                 7888     2768     482
     Max         301     149     47                 7893     2771     485
     Sum        1201     593    185                31559    11075    1935



     bravais-lattice index     =            0
     lattice parameter (alat)  =       6.4994  a.u.
     unit-cell volume          =     274.5436 (a.u.)^3
     number of atoms/cell      =            2
     number of atomic types    =            1
     number of electrons       =         6.00
     number of Kohn-Sham states=            7
     kinetic-energy cutoff     =      45.0000  Ry
     charge density cutoff     =     360.0000  Ry
     scf convergence threshold =      1.0E-06
     mixing beta               =       0.7000
     number of iterations used =            8  plain     mixing
     energy convergence thresh.=      1.0E-04
     force convergence thresh. =      1.0E-03
     press convergence thresh. =      5.0E-01
     Exchange-correlation= VDW-DF2-B86R
                           (   1   4  26   0   2   0   0)
     nstep                     =           50


     celldm(1)=   6.499358  celldm(2)=   0.000000  celldm(3)=   0.000000
     celldm(4)=   0.000000  celldm(5)=   0.000000  celldm(6)=   0.000000

     crystal axes: (cart. coord. in units of alat)
               a(1) = (   1.000000   0.000000   0.000000 )  
               a(2) = (   0.000000   1.000000   0.000000 )  
               a(3) = (   0.000000   0.000000   1.000000 )  

     reciprocal axes: (cart. coord. in units 2 pi/alat)
               b(1) = (  1.000000  0.000000  0.000000 )  
               b(2) = (  0.000000  1.000000  0.000000 )  
               b(3) = (  0.000000  0.000000  1.000000 )  


     PseudoPot. # 1 for Li read from file:
     /home/zinnia7/espresso/pseudo/li_pbe_v1.4.uspp.F.UPF
     MD5 check sum: e912e257baa3777c20ea3d68f190483c
     Pseudo is Ultrasoft, Zval =  3.0
     Generated by new atomic code, or converted to UPF format
     Using radial grid of  751 points,  5 beta functions with: 
                l(1) =   0
                l(2) =   0
                l(3) =   0
                l(4) =   1
                l(5) =   1
     Q(r) pseudized with 10 coefficients,  rinner =    1.150   1.150   1.150


     atomic species   valence    mass     pseudopotential
        Li             3.00     6.94000     Li( 1.00)

     48 Sym. Ops., with inversion, found



   Cartesian axes

     site n.     atom                  positions (alat units)
         1           Li  tau(   1) = (   0.0000000   0.0000000   0.0000000  )
         2           Li  tau(   2) = (   0.5000000   0.5000000   0.5000000  )

     number of k points=    35  Gaussian smearing, width (Ry)=  0.0100
                       cart. coord. in units 2pi/alat
        k(    1) = (   0.0000000   0.0000000   0.0000000), wk =   0.0027435
        k(    2) = (   0.0000000   0.0000000   0.1111111), wk =   0.0164609
        k(    3) = (   0.0000000   0.0000000   0.2222222), wk =   0.0164609
        k(    4) = (   0.0000000   0.0000000   0.3333333), wk =   0.0164609
        k(    5) = (   0.0000000   0.0000000   0.4444444), wk =   0.0164609
        k(    6) = (   0.0000000   0.1111111   0.1111111), wk =   0.0329218
        k(    7) = (   0.0000000   0.1111111   0.2222222), wk =   0.0658436
        k(    8) = (   0.0000000   0.1111111   0.3333333), wk =   0.0658436
        k(    9) = (   0.0000000   0.1111111   0.4444444), wk =   0.0658436
        k(   10) = (   0.0000000   0.2222222   0.2222222), wk =   0.0329218
        k(   11) = (   0.0000000   0.2222222   0.3333333), wk =   0.0658436
        k(   12) = (   0.0000000   0.2222222   0.4444444), wk =   0.0658436
        k(   13) = (   0.0000000   0.3333333   0.3333333), wk =   0.0329218
        k(   14) = (   0.0000000   0.3333333   0.4444444), wk =   0.0658436
        k(   15) = (   0.0000000   0.4444444   0.4444444), wk =   0.0329218
        k(   16) = (   0.1111111   0.1111111   0.1111111), wk =   0.0219479
        k(   17) = (   0.1111111   0.1111111   0.2222222), wk =   0.0658436
        k(   18) = (   0.1111111   0.1111111   0.3333333), wk =   0.0658436
        k(   19) = (   0.1111111   0.1111111   0.4444444), wk =   0.0658436
        k(   20) = (   0.1111111   0.2222222   0.2222222), wk =   0.0658436
        k(   21) = (   0.1111111   0.2222222   0.3333333), wk =   0.1316872
        k(   22) = (   0.1111111   0.2222222   0.4444444), wk =   0.1316872
        k(   23) = (   0.1111111   0.3333333   0.3333333), wk =   0.0658436
        k(   24) = (   0.1111111   0.3333333   0.4444444), wk =   0.1316872
        k(   25) = (   0.1111111   0.4444444   0.4444444), wk =   0.0658436
        k(   26) = (   0.2222222   0.2222222   0.2222222), wk =   0.0219479
        k(   27) = (   0.2222222   0.2222222   0.3333333), wk =   0.0658436
        k(   28) = (   0.2222222   0.2222222   0.4444444), wk =   0.0658436
        k(   29) = (   0.2222222   0.3333333   0.3333333), wk =   0.0658436
        k(   30) = (   0.2222222   0.3333333   0.4444444), wk =   0.1316872
        k(   31) = (   0.2222222   0.4444444   0.4444444), wk =   0.0658436
        k(   32) = (   0.3333333   0.3333333   0.3333333), wk =   0.0219479
        k(   33) = (   0.3333333   0.3333333   0.4444444), wk =   0.0658436
        k(   34) = (   0.3333333   0.4444444   0.4444444), wk =   0.0658436
        k(   35) = (   0.4444444   0.4444444   0.4444444), wk =   0.0219479

     Dense  grid:    31559 G-vectors     FFT dimensions: (  40,  40,  40)

     Smooth grid:    11075 G-vectors     FFT dimensions: (  27,  27,  27)

     Estimated max dynamical RAM per process >      14.19 MB

     Estimated total dynamical RAM >      56.76 MB

     Initial potential from superposition of free atoms

     starting charge    5.09851, renormalised to    6.00000


     %%%%%%%%%%%%%%%%%%%%%%%%%%%%%%%%%%%%%%%%%%%%%%%%%%%%%%%%%%%%%%%%%%%%%%%%
     %                                                                      %
     % You are using vdW-DF, which was implemented by the Thonhauser group. %
     % Please cite the following two papers that made this development      %
     % possible and the two reviews that describe the various versions:     %
     %                                                                      %
     %   T. Thonhauser et al., PRL 115, 136402 (2015).                      %
     %   T. Thonhauser et al., PRB 76, 125112 (2007).                       %
     %   K. Berland et al., Rep. Prog. Phys. 78, 066501 (2015).             %
     %   D.C. Langreth et al., J. Phys.: Condens. Matter 21, 084203 (2009). %
     %                                                                      %
     %                                                                      %
     % If you are calculating the stress with vdW-DF, please also cite:     %
     %                                                                      %
     %   R. Sabatini et al., J. Phys.: Condens. Matter 24, 424209 (2012).   %
     %                                                                      %
     %%%%%%%%%%%%%%%%%%%%%%%%%%%%%%%%%%%%%%%%%%%%%%%%%%%%%%%%%%%%%%%%%%%%%%%%


     Starting wfcs are   10 randomized atomic wfcs

     total cpu time spent up to now is       76.5 secs

     Self-consistent Calculation

     iteration #  1     ecut=    45.00 Ry     beta= 0.70
     Davidson diagonalization with overlap
     ethr =  1.00E-02,  avg # of iterations =  3.5

     total cpu time spent up to now is       77.1 secs

     total energy              =     -28.93688395 Ry
     estimated scf accuracy    <       0.32818489 Ry

     iteration #  2     ecut=    45.00 Ry     beta= 0.70
     Davidson diagonalization with overlap
     ethr =  5.47E-03,  avg # of iterations =  1.0

     total cpu time spent up to now is       77.6 secs

     total energy              =     -28.94639831 Ry
     estimated scf accuracy    <       0.01610001 Ry

     iteration #  3     ecut=    45.00 Ry     beta= 0.70
     Davidson diagonalization with overlap
     ethr =  2.68E-04,  avg # of iterations =  2.1

     total cpu time spent up to now is       78.2 secs

     total energy              =     -28.95228178 Ry
     estimated scf accuracy    <       0.00007080 Ry

     iteration #  4     ecut=    45.00 Ry     beta= 0.70
     Davidson diagonalization with overlap
     ethr =  1.18E-06,  avg # of iterations =  6.5

     total cpu time spent up to now is       79.1 secs

     total energy              =     -28.95248405 Ry
     estimated scf accuracy    <       0.00000931 Ry

     iteration #  5     ecut=    45.00 Ry     beta= 0.70
     Davidson diagonalization with overlap
     ethr =  1.55E-07,  avg # of iterations =  2.0

     total cpu time spent up to now is       79.7 secs

     End of self-consistent calculation

          k = 0.0000 0.0000 0.0000 (  1365 PWs)   bands (ev):

   -45.5237 -45.4913  -2.6300   6.4386   6.4386   6.4387   8.6798

          k = 0.0000 0.0000 0.1111 (  1370 PWs)   bands (ev):

   -45.5226 -45.4921  -2.5134   5.1106   6.5894   6.5894  10.2126

          k = 0.0000 0.0000 0.2222 (  1390 PWs)   bands (ev):

   -45.5193 -45.4945  -2.1618   3.3091   7.0405   7.0405   9.3073

          k = 0.0000 0.0000 0.3333 (  1414 PWs)   bands (ev):

   -45.5145 -45.4983  -1.5709   1.7060   7.7887   7.7888  10.0917

          k = 0.0000 0.0000 0.4444 (  1414 PWs)   bands (ev):

   -45.5089 -45.5033  -0.7338   0.3567   8.8266   8.8266  10.1379

          k = 0.0000 0.1111 0.1111 (  1386 PWs)   bands (ev):

   -45.5215 -45.4929  -2.3968   4.8485   5.7653   6.7397   9.7713

          k = 0.0000 0.1111 0.2222 (  1392 PWs)   bands (ev):

   -45.5184 -45.4951  -2.0457   3.3456   5.9578   7.1896  10.4381

          k = 0.0000 0.1111 0.3333 (  1396 PWs)   bands (ev):

   -45.5138 -45.4986  -1.4562   1.7913   6.6683   7.9351  10.5295

          k = 0.0000 0.1111 0.4444 (  1404 PWs)   bands (ev):

   -45.5085 -45.5033  -0.6228   0.4598   7.6875   8.9672   8.9855

          k = 0.0000 0.2222 0.2222 (  1396 PWs)   bands (ev):

   -45.5158 -45.4968  -1.6968   3.0785   4.9346   7.6352  10.4772

          k = 0.0000 0.2222 0.3333 (  1387 PWs)   bands (ev):

   -45.5120 -45.4996  -1.1136   1.9705   5.1920   8.3711   8.7819

          k = 0.0000 0.2222 0.4444 (  1402 PWs)   bands (ev):

   -45.5076 -45.5033  -0.2960   0.7478   6.0760   7.2957   9.3820

          k = 0.0000 0.3333 0.3333 (  1380 PWs)   bands (ev):

   -45.5093 -45.5012  -0.5488   1.8618   4.4212   7.1616   9.0841

          k = 0.0000 0.3333 0.4444 (  1397 PWs)   bands (ev):

   -45.5064 -45.5035   0.2193   1.1194   4.7773   5.7918  10.0385

          k = 0.0000 0.4444 0.4444 (  1398 PWs)   bands (ev):

   -45.5051 -45.5041   0.8323   1.2486   4.1973   4.6533  10.8254

          k = 0.1111 0.1111 0.1111 (  1385 PWs)   bands (ev):

   -45.5205 -45.4936  -2.2803   5.0019   5.0019   6.6086  11.0409

          k = 0.1111 0.1111 0.2222 (  1393 PWs)   bands (ev):

   -45.5175 -45.4956  -1.9294   3.4185   5.4614   6.9457  11.5013

          k = 0.1111 0.1111 0.3333 (  1394 PWs)   bands (ev):

   -45.5132 -45.4989  -1.3409   1.8857   6.2253   7.6148  10.2787

          k = 0.1111 0.1111 0.4444 (  1410 PWs)   bands (ev):

   -45.5082 -45.5032  -0.5101   0.5665   7.2897   8.5514   8.6470

          k = 0.1111 0.2222 0.2222 (  1391 PWs)   bands (ev):

   -45.5151 -45.4972  -1.5799   3.2328   4.6527   7.1844  10.5267

          k = 0.1111 0.2222 0.3333 (  1396 PWs)   bands (ev):

   -45.5114 -45.4998  -0.9961   2.0955   5.0439   7.8049   8.8038

          k = 0.1111 0.2222 0.4444 (  1399 PWs)   bands (ev):

   -45.5073 -45.5032  -0.1783   0.8659   5.9982   7.2708   8.6954

          k = 0.1111 0.3333 0.3333 (  1403 PWs)   bands (ev):

   -45.5089 -45.5013  -0.4277   2.0165   4.3439   7.2070   8.3970

          k = 0.1111 0.3333 0.4444 (  1399 PWs)   bands (ev):

   -45.5061 -45.5034   0.3461   1.2580   4.7652   5.8204   9.2499

          k = 0.1111 0.4444 0.4444 (  1406 PWs)   bands (ev):

   -45.5049 -45.5039   0.9740   1.4036   4.2018   4.6803  10.0405

          k = 0.2222 0.2222 0.2222 (  1397 PWs)   bands (ev):

   -45.5130 -45.4984  -1.2291   3.6955   3.6955   6.9574  10.5192

          k = 0.2222 0.2222 0.3333 (  1404 PWs)   bands (ev):

   -45.5099 -45.5004  -0.6452   2.4188   4.4655   7.2945   8.5837

          k = 0.2222 0.2222 0.4444 (  1410 PWs)   bands (ev):

   -45.5065 -45.5032   0.1688   1.2021   5.5405   6.9163   7.9554

          k = 0.2222 0.3333 0.3333 (  1410 PWs)   bands (ev):

   -45.5078 -45.5016  -0.0673   2.4806   4.0033   7.3179   7.4373

          k = 0.2222 0.3333 0.4444 (  1409 PWs)   bands (ev):

   -45.5054 -45.5032   0.7205   1.6632   4.6687   5.8693   7.9699

          k = 0.2222 0.4444 0.4444 (  1405 PWs)   bands (ev):

   -45.5044 -45.5036   1.3939   1.8682   4.1965   4.7592   8.3907

          k = 0.3333 0.3333 0.3333 (  1412 PWs)   bands (ev):

   -45.5062 -45.5021   0.5224   3.2531   3.2531   7.0215   7.3972

          k = 0.3333 0.3333 0.4444 (  1409 PWs)   bands (ev):

   -45.5046 -45.5031   1.3191   2.2715   4.3326   5.7160   7.0835

          k = 0.3333 0.4444 0.4444 (  1399 PWs)   bands (ev):

   -45.5038 -45.5032   2.0699   2.6418   4.1049   4.8896   6.7782

          k = 0.4444 0.4444 0.4444 (  1400 PWs)   bands (ev):

   -45.5034 -45.5030   2.9287   3.7230   3.7230   5.1094   5.1108

     the Fermi energy is     0.8882 ev

!    total energy              =     -28.95248587 Ry
     estimated scf accuracy    <       0.00000039 Ry
     smearing contrib. (-TS)   =      -0.00072267 Ry
     internal energy E=F+TS    =     -28.95176320 Ry

     The total energy is F=E-TS. E is the sum of the following terms:
     one-electron contribution =     -19.43260285 Ry
     hartree contribution      =       7.31534478 Ry
     xc contribution           =      -6.75563199 Ry
     ewald contribution        =     -10.07887313 Ry

     convergence has been achieved in   5 iterations

     Forces acting on atoms (cartesian axes, Ry/au):

     atom    1 type  1   force =     0.00000000    0.00000000    0.00000000
     atom    2 type  1   force =     0.00000000    0.00000000    0.00000000

     Total force =     0.000000     Total SCF correction =     0.000000


     Computing stress (Cartesian axis) and pressure

          total   stress  (Ry/bohr**3)                   (kbar)     P=       -2.25
  -0.00001528   0.00000000   0.00000000           -2.25        0.00        0.00
   0.00000000  -0.00001528   0.00000000            0.00       -2.25        0.00
   0.00000000   0.00000000  -0.00001528            0.00        0.00       -2.25


     BFGS Geometry Optimization
     Energy error            =      0.0E+00
     Gradient error          =      0.0E+00
     Cell gradient error     =      1.5E-05


     number of scf cycles    =   1
     number of bfgs steps    =   0

     enthalpy new            =     -28.9524858737 Ry

     new trust radius        =       0.0012656821 bohr
     new conv_thr            =       0.0000010000 Ry

     new unit-cell volume =    274.22915 a.u.^3 (    40.63657 Ang^3 )
     density =      0.56718 g/cm^3

CELL_PARAMETERS (angstrom)
   3.437998408   0.000000000   0.000000000
   0.000000000   3.437998408   0.000000000
   0.000000000   0.000000000   3.437998408

ATOMIC_POSITIONS (angstrom)
Li            0.0000000000        0.0000000000        0.0000000000
Li            1.7189992039        1.7189992039        1.7189992039



     Writing output data file ./Li.save/
     NEW-OLD atomic charge density approx. for the potential
     extrapolated charge    5.99415, renormalised to    6.00000

     total cpu time spent up to now is       80.9 secs

     Self-consistent Calculation

     iteration #  1     ecut=    45.00 Ry     beta= 0.70
     Davidson diagonalization with overlap
     ethr =  1.00E-06,  avg # of iterations =  2.0

     Threshold (ethr) on eigenvalues was too large:
     Diagonalizing with lowered threshold

     Davidson diagonalization with overlap
     ethr =  1.86E-08,  avg # of iterations =  1.0

     total cpu time spent up to now is       81.7 secs

     total energy              =     -28.95248600 Ry
     estimated scf accuracy    <       0.00000113 Ry

     iteration #  2     ecut=    45.00 Ry     beta= 0.70
     Davidson diagonalization with overlap
     ethr =  1.88E-08,  avg # of iterations =  3.7

     total cpu time spent up to now is       82.4 secs

     End of self-consistent calculation

          k = 0.0000 0.0000 0.0000 (  1365 PWs)   bands (ev):

   -45.5236 -45.4910  -2.6288   6.4440   6.4440   6.4440   8.6897

          k = 0.0000 0.0000 0.1112 (  1370 PWs)   bands (ev):

   -45.5224 -45.4919  -2.5121   5.1158   6.5948   6.5948  10.2228

          k = 0.0000 0.0000 0.2223 (  1390 PWs)   bands (ev):

   -45.5191 -45.4942  -2.1604   3.3134   7.0463   7.0463   9.3177

          k = 0.0000 0.0000 0.3335 (  1414 PWs)   bands (ev):

   -45.5143 -45.4980  -1.5692   1.7094   7.7951   7.7951  10.1027

          k = 0.0000 0.0000 0.4446 (  1414 PWs)   bands (ev):

   -45.5087 -45.5030  -0.7318   0.3594   8.8337   8.8337  10.1460

          k = 0.0000 0.1112 0.1112 (  1386 PWs)   bands (ev):

   -45.5213 -45.4926  -2.3955   4.8536   5.7709   6.7453   9.7816

          k = 0.0000 0.1112 0.2223 (  1392 PWs)   bands (ev):

   -45.5182 -45.4948  -2.0443   3.3498   5.9636   7.1955  10.4488

          k = 0.0000 0.1112 0.3335 (  1396 PWs)   bands (ev):

   -45.5136 -45.4984  -1.4545   1.7946   6.6747   7.9416  10.5387

          k = 0.0000 0.1112 0.4446 (  1404 PWs)   bands (ev):

   -45.5083 -45.5030  -0.6207   0.4625   7.6946   8.9744   8.9936

          k = 0.0000 0.2223 0.2223 (  1396 PWs)   bands (ev):

   -45.5156 -45.4965  -1.6952   3.0824   4.9403   7.6414  10.4867

          k = 0.0000 0.2223 0.3335 (  1387 PWs)   bands (ev):

   -45.5118 -45.4993  -1.1118   1.9738   5.1979   8.3778   8.7904

          k = 0.0000 0.2223 0.4446 (  1402 PWs)   bands (ev):

   -45.5074 -45.5030  -0.2938   0.7506   6.0825   7.3031   9.3895

          k = 0.0000 0.3335 0.3335 (  1380 PWs)   bands (ev):

   -45.5091 -45.5010  -0.5467   1.8648   4.4270   7.1691   9.0914

          k = 0.0000 0.3335 0.4446 (  1397 PWs)   bands (ev):

   -45.5061 -45.5033   0.2217   1.1221   4.7834   5.7984  10.0465

          k = 0.0000 0.4446 0.4446 (  1398 PWs)   bands (ev):

   -45.5049 -45.5039   0.8349   1.2512   4.2033   4.6594  10.8337

          k = 0.1112 0.1112 0.1112 (  1385 PWs)   bands (ev):

   -45.5203 -45.4933  -2.2789   5.0070   5.0070   6.6145  11.0518

          k = 0.1112 0.1112 0.2223 (  1393 PWs)   bands (ev):

   -45.5173 -45.4953  -1.9279   3.4227   5.4669   6.9520  11.5124

          k = 0.1112 0.1112 0.3335 (  1394 PWs)   bands (ev):

   -45.5130 -45.4986  -1.3391   1.8891   6.2313   7.6217  10.2877

          k = 0.1112 0.1112 0.4446 (  1410 PWs)   bands (ev):

   -45.5080 -45.5030  -0.5079   0.5692   7.2966   8.5590   8.6548

          k = 0.1112 0.2223 0.2223 (  1391 PWs)   bands (ev):

   -45.5148 -45.4969  -1.5782   3.2368   4.6579   7.1911  10.5363

          k = 0.1112 0.2223 0.3335 (  1396 PWs)   bands (ev):

   -45.5112 -45.4995  -0.9942   2.0989   5.0495   7.8122   8.8122

          k = 0.1112 0.2223 0.4446 (  1399 PWs)   bands (ev):

   -45.5071 -45.5030  -0.1760   0.8687   6.0045   7.2781   8.7034

          k = 0.1112 0.3335 0.3335 (  1403 PWs)   bands (ev):

   -45.5087 -45.5010  -0.4255   2.0197   4.3494   7.2144   8.4047

          k = 0.1112 0.3335 0.4446 (  1399 PWs)   bands (ev):

   -45.5058 -45.5032   0.3486   1.2608   4.7712   5.8269   9.2582

          k = 0.1112 0.4446 0.4446 (  1406 PWs)   bands (ev):

   -45.5047 -45.5037   0.9767   1.4063   4.2077   4.6864  10.0493

          k = 0.2223 0.2223 0.2223 (  1397 PWs)   bands (ev):

   -45.5127 -45.4981  -1.2273   3.6999   3.6999   6.9647  10.5286

          k = 0.2223 0.2223 0.3335 (  1404 PWs)   bands (ev):

   -45.5097 -45.5002  -0.6431   2.4224   4.4704   7.3023   8.5917

          k = 0.2223 0.2223 0.4446 (  1410 PWs)   bands (ev):

   -45.5062 -45.5029   0.1713   1.2051   5.5463   6.9231   7.9637

          k = 0.2223 0.3335 0.3335 (  1410 PWs)   bands (ev):

   -45.5075 -45.5013  -0.0650   2.4841   4.0082   7.3252   7.4454

          k = 0.2223 0.3335 0.4446 (  1409 PWs)   bands (ev):

   -45.5052 -45.5030   0.7232   1.6663   4.6742   5.8756   7.9782

          k = 0.2223 0.4446 0.4446 (  1405 PWs)   bands (ev):

   -45.5041 -45.5034   1.3968   1.8712   4.2020   4.7650   8.3990

          k = 0.3335 0.3335 0.3335 (  1412 PWs)   bands (ev):

   -45.5059 -45.5019   0.5251   3.2572   3.2572   7.0296   7.4045

          k = 0.3335 0.3335 0.4446 (  1409 PWs)   bands (ev):

   -45.5043 -45.5029   1.3221   2.2750   4.3375   5.7220   7.0914

          k = 0.3335 0.4446 0.4446 (  1399 PWs)   bands (ev):

   -45.5035 -45.5030   2.0733   2.6454   4.1099   4.8951   6.7854

          k = 0.4446 0.4446 0.4446 (  1400 PWs)   bands (ev):

   -45.5030 -45.5028   2.9327   3.7275   3.7275   5.1150   5.1161

     the Fermi energy is     0.8909 ev

!    total energy              =     -28.95248742 Ry
     estimated scf accuracy    <       0.00000005 Ry
     smearing contrib. (-TS)   =      -0.00072270 Ry
     internal energy E=F+TS    =     -28.95176471 Ry

     The total energy is F=E-TS. E is the sum of the following terms:
     one-electron contribution =     -19.42698144 Ry
     hartree contribution      =       7.31398511 Ry
     xc contribution           =      -6.75604431 Ry
     ewald contribution        =     -10.08272408 Ry

     convergence has been achieved in   2 iterations

     Forces acting on atoms (cartesian axes, Ry/au):

     atom    1 type  1   force =     0.00000000    0.00000000    0.00000000
     atom    2 type  1   force =     0.00000000    0.00000000    0.00000000

     Total force =     0.000000     Total SCF correction =     0.000000


     Computing stress (Cartesian axis) and pressure

          total   stress  (Ry/bohr**3)                   (kbar)     P=       -1.03
  -0.00000699   0.00000000   0.00000000           -1.03        0.00        0.00
   0.00000000  -0.00000699   0.00000000            0.00       -1.03        0.00
   0.00000000   0.00000000  -0.00000699            0.00        0.00       -1.03

     Energy error            =      1.5E-06
     Gradient error          =      0.0E+00
     Cell gradient error     =      7.0E-06


     number of scf cycles    =   2
     number of bfgs steps    =   1

     enthalpy old            =     -28.9524858737 Ry
     enthalpy new            =     -28.9524874153 Ry

     CASE: enthalpy_new < enthalpy_old

     new trust radius        =       0.0010651869 bohr
     new conv_thr            =       0.0000000100 Ry

     new unit-cell volume =    273.96464 a.u.^3 (    40.59737 Ang^3 )
     density =      0.56773 g/cm^3

CELL_PARAMETERS (angstrom)
   3.436892689   0.000000000   0.000000000
   0.000000000   3.436892689   0.000000000
   0.000000000   0.000000000   3.436892689

ATOMIC_POSITIONS (angstrom)
Li            0.0000000000        0.0000000000        0.0000000000
Li            1.7184463445        1.7184463445        1.7184463445



     Writing output data file ./Li.save/
     NEW-OLD atomic charge density approx. for the potential
     extrapolated charge    5.99508, renormalised to    6.00000

     total cpu time spent up to now is       83.7 secs

     Self-consistent Calculation

     iteration #  1     ecut=    45.00 Ry     beta= 0.70
     Davidson diagonalization with overlap
     ethr =  1.00E-06,  avg # of iterations =  2.0

     Threshold (ethr) on eigenvalues was too large:
     Diagonalizing with lowered threshold

     Davidson diagonalization with overlap
     ethr =  1.19E-08,  avg # of iterations =  1.1

     total cpu time spent up to now is       84.5 secs

     total energy              =     -28.95248727 Ry
     estimated scf accuracy    <       0.00000072 Ry

     iteration #  2     ecut=    45.00 Ry     beta= 0.70
     Davidson diagonalization with overlap
     ethr =  1.20E-08,  avg # of iterations =  3.9

     total cpu time spent up to now is       85.2 secs

     total energy              =     -28.95248829 Ry
     estimated scf accuracy    <       0.00000004 Ry

     iteration #  3     ecut=    45.00 Ry     beta= 0.70
     Davidson diagonalization with overlap
     ethr =  6.78E-10,  avg # of iterations =  1.6

     total cpu time spent up to now is       85.7 secs

     End of self-consistent calculation

          k = 0.0000 0.0000 0.0000 (  1365 PWs)   bands (ev):

   -45.5206 -45.4880  -2.6272   6.4503   6.4503   6.4503   8.6970

          k = 0.0000 0.0000 0.1112 (  1370 PWs)   bands (ev):

   -45.5194 -45.4888  -2.5104   5.1213   6.6013   6.6013   8.8542

          k = 0.0000 0.0000 0.2224 (  1390 PWs)   bands (ev):

   -45.5162 -45.4911  -2.1586   3.3178   7.0531   7.0531   9.3254

          k = 0.0000 0.0000 0.3336 (  1414 PWs)   bands (ev):

   -45.5113 -45.4950  -1.5672   1.7129   7.8024   7.8024  10.1109

          k = 0.0000 0.0000 0.4448 (  1414 PWs)   bands (ev):

   -45.5056 -45.5000  -0.7294   0.3623   8.8416   8.8416  10.1548

          k = 0.0000 0.1112 0.1112 (  1386 PWs)   bands (ev):

   -45.5183 -45.4895  -2.3938   4.8587   5.7769   6.7518   9.7899

          k = 0.0000 0.1112 0.2224 (  1392 PWs)   bands (ev):

   -45.5152 -45.4917  -2.0424   3.3542   5.9698   7.2024  10.4575

          k = 0.0000 0.1112 0.3336 (  1396 PWs)   bands (ev):

   -45.5106 -45.4953  -1.4524   1.7982   6.6813   7.9489  10.5479

          k = 0.0000 0.1112 0.4448 (  1404 PWs)   bands (ev):

   -45.5053 -45.5000  -0.6183   0.4654   7.7019   8.9825   9.0018

          k = 0.0000 0.2224 0.2224 (  1396 PWs)   bands (ev):

   -45.5126 -45.4934  -1.6933   3.0864   4.9461   7.6486  10.4960

          k = 0.0000 0.2224 0.3336 (  1387 PWs)   bands (ev):

   -45.5087 -45.4963  -1.1096   1.9773   5.2039   8.3855   8.7986

          k = 0.0000 0.2224 0.4448 (  1402 PWs)   bands (ev):

   -45.5043 -45.5000  -0.2913   0.7535   6.0890   7.3104   9.3977

          k = 0.0000 0.3336 0.3336 (  1380 PWs)   bands (ev):

   -45.5061 -45.4979  -0.5443   1.8680   4.4330   7.1764   9.0995

          k = 0.0000 0.3336 0.4448 (  1397 PWs)   bands (ev):

   -45.5031 -45.5002   0.2243   1.1250   4.7895   5.8050  10.0553

          k = 0.0000 0.4448 0.4448 (  1398 PWs)   bands (ev):

   -45.5018 -45.5008   0.8376   1.2540   4.2094   4.6656  10.8429

          k = 0.1112 0.1112 0.1112 (  1385 PWs)   bands (ev):

   -45.5173 -45.4902  -2.2771   5.0123   5.0123   6.6214  11.0608

          k = 0.1112 0.1112 0.2224 (  1393 PWs)   bands (ev):

   -45.5143 -45.4923  -1.9260   3.4271   5.4724   6.9592  11.5217

          k = 0.1112 0.1112 0.3336 (  1394 PWs)   bands (ev):

   -45.5100 -45.4956  -1.3370   1.8927   6.2374   7.6293  10.2964

          k = 0.1112 0.1112 0.4448 (  1410 PWs)   bands (ev):

   -45.5049 -45.4999  -0.5055   0.5721   7.3033   8.5673   8.6624

          k = 0.1112 0.2224 0.2224 (  1391 PWs)   bands (ev):

   -45.5118 -45.4938  -1.5762   3.2409   4.6632   7.1986  10.5455

          k = 0.1112 0.2224 0.3336 (  1396 PWs)   bands (ev):

   -45.5082 -45.4965  -0.9920   2.1024   5.0551   7.8201   8.8203

          k = 0.1112 0.2224 0.4448 (  1399 PWs)   bands (ev):

   -45.5040 -45.4999  -0.1734   0.8717   6.0107   7.2851   8.7118

          k = 0.1112 0.3336 0.3336 (  1403 PWs)   bands (ev):

   -45.5056 -45.4980  -0.4231   2.0230   4.3551   7.2217   8.4130

          k = 0.1112 0.3336 0.4448 (  1399 PWs)   bands (ev):

   -45.5028 -45.5001   0.3513   1.2638   4.7771   5.8334   9.2670

          k = 0.1112 0.4448 0.4448 (  1406 PWs)   bands (ev):

   -45.5016 -45.5007   0.9795   1.4092   4.2136   4.6924  10.0584

          k = 0.2224 0.2224 0.2224 (  1397 PWs)   bands (ev):

   -45.5097 -45.4951  -1.2252   3.7043   3.7043   6.9728  10.5375

          k = 0.2224 0.2224 0.3336 (  1404 PWs)   bands (ev):

   -45.5067 -45.4971  -0.6407   2.4261   4.4753   7.3106   8.5992

          k = 0.2224 0.2224 0.4448 (  1410 PWs)   bands (ev):

   -45.5032 -45.4999   0.1740   1.2082   5.5518   6.9296   7.9723

          k = 0.2224 0.3336 0.3336 (  1410 PWs)   bands (ev):

   -45.5045 -45.4982  -0.0623   2.4877   4.0131   7.3322   7.4538

          k = 0.2224 0.3336 0.4448 (  1409 PWs)   bands (ev):

   -45.5021 -45.5000   0.7261   1.6695   4.6795   5.8817   7.9866

          k = 0.2224 0.4448 0.4448 (  1405 PWs)   bands (ev):

   -45.5011 -45.5003   1.3999   1.8744   4.2075   4.7708   8.4070

          k = 0.3336 0.3336 0.3336 (  1412 PWs)   bands (ev):

   -45.5029 -45.4988   0.5279   3.2613   3.2613   7.0380   7.4113

          k = 0.3336 0.3336 0.4448 (  1409 PWs)   bands (ev):

   -45.5012 -45.4998   1.3253   2.2786   4.3423   5.7277   7.0992

          k = 0.3336 0.4448 0.4448 (  1399 PWs)   bands (ev):

   -45.5004 -45.5000   2.0768   2.6491   4.1148   4.9005   6.7923

          k = 0.4448 0.4448 0.4448 (  1400 PWs)   bands (ev):

   -45.5000 -45.4998   2.9367   3.7319   3.7319   5.1203   5.1207

     the Fermi energy is     0.8938 ev

!    total energy              =     -28.95248829 Ry
     estimated scf accuracy    <          6.0E-09 Ry
     smearing contrib. (-TS)   =      -0.00072278 Ry
     internal energy E=F+TS    =     -28.95176551 Ry

     The total energy is F=E-TS. E is the sum of the following terms:
     one-electron contribution =     -19.42206752 Ry
     hartree contribution      =       7.31261157 Ry
     xc contribution           =      -6.75634166 Ry
     ewald contribution        =     -10.08596790 Ry

     convergence has been achieved in   3 iterations

     Forces acting on atoms (cartesian axes, Ry/au):

     atom    1 type  1   force =     0.00000000    0.00000000    0.00000000
     atom    2 type  1   force =     0.00000000    0.00000000    0.00000000

     Total force =     0.000000     Total SCF correction =     0.000000


     Computing stress (Cartesian axis) and pressure

          total   stress  (Ry/bohr**3)                   (kbar)     P=       -0.60
  -0.00000408   0.00000000   0.00000000           -0.60        0.00        0.00
   0.00000000  -0.00000408   0.00000000            0.00       -0.60        0.00
   0.00000000   0.00000000  -0.00000408            0.00        0.00       -0.60

     Energy error            =      8.7E-07
     Gradient error          =      0.0E+00
     Cell gradient error     =      4.1E-06


     number of scf cycles    =   3
     number of bfgs steps    =   2

     enthalpy old            =     -28.9524874153 Ry
     enthalpy new            =     -28.9524882889 Ry

     CASE: enthalpy_new < enthalpy_old

     new trust radius        =       0.0014961841 bohr
     new conv_thr            =       0.0000000100 Ry

     new unit-cell volume =    273.59334 a.u.^3 (    40.54235 Ang^3 )
     density =      0.56850 g/cm^3

CELL_PARAMETERS (angstrom)
   3.435339323   0.000000000   0.000000000
   0.000000000   3.435339323   0.000000000
   0.000000000   0.000000000   3.435339323

ATOMIC_POSITIONS (angstrom)
Li            0.0000000000        0.0000000000        0.0000000000
Li            1.7176696616        1.7176696616        1.7176696616



     Writing output data file ./Li.save/
     NEW-OLD atomic charge density approx. for the potential
     extrapolated charge    5.99308, renormalised to    6.00000

     total cpu time spent up to now is       87.0 secs

     Self-consistent Calculation

     iteration #  1     ecut=    45.00 Ry     beta= 0.70
     Davidson diagonalization with overlap
     ethr =  1.00E-06,  avg # of iterations =  2.0

     Threshold (ethr) on eigenvalues was too large:
     Diagonalizing with lowered threshold

     Davidson diagonalization with overlap
     ethr =  2.25E-08,  avg # of iterations =  1.0

     total cpu time spent up to now is       87.8 secs

     total energy              =     -28.95248711 Ry
     estimated scf accuracy    <       0.00000137 Ry

     iteration #  2     ecut=    45.00 Ry     beta= 0.70
     Davidson diagonalization with overlap
     ethr =  2.29E-08,  avg # of iterations =  3.8

     total cpu time spent up to now is       88.5 secs

     total energy              =     -28.95248910 Ry
     estimated scf accuracy    <       0.00000008 Ry

     iteration #  3     ecut=    45.00 Ry     beta= 0.70
     Davidson diagonalization with overlap
     ethr =  1.36E-09,  avg # of iterations =  1.4

     total cpu time spent up to now is       89.0 secs

     total energy              =     -28.95248910 Ry
     estimated scf accuracy    <       0.00000001 Ry

     iteration #  4     ecut=    45.00 Ry     beta= 0.70
     Davidson diagonalization with overlap
     ethr =  2.06E-10,  avg # of iterations =  1.9

     total cpu time spent up to now is       89.5 secs

     End of self-consistent calculation

          k = 0.0000 0.0000 0.0000 (  1365 PWs)   bands (ev):

   -45.5150 -45.4822  -2.6248   6.4594   6.4594   6.4594   8.7071

          k = 0.0000 0.0000 0.1112 (  1370 PWs)   bands (ev):

   -45.5139 -45.4830  -2.5080   5.1290   6.6105   6.6105   8.8644

          k = 0.0000 0.0000 0.2225 (  1390 PWs)   bands (ev):

   -45.5106 -45.4854  -2.1560   3.3240   7.0627   7.0627   9.3361

          k = 0.0000 0.0000 0.3337 (  1414 PWs)   bands (ev):

   -45.5057 -45.4893  -1.5642   1.7180   7.8127   7.8127  10.1223

          k = 0.0000 0.0000 0.4450 (  1414 PWs)   bands (ev):

   -45.5000 -45.4943  -0.7260   0.3663   8.8529   8.8529  10.1673

          k = 0.0000 0.1112 0.1112 (  1386 PWs)   bands (ev):

   -45.5128 -45.4838  -2.3913   4.8661   5.7855   6.7612   9.8013

          k = 0.0000 0.1112 0.2225 (  1392 PWs)   bands (ev):

   -45.5096 -45.4860  -2.0398   3.3603   5.9785   7.2122  10.4697

          k = 0.0000 0.1112 0.3337 (  1396 PWs)   bands (ev):

   -45.5050 -45.4896  -1.4495   1.8032   6.6907   7.9594  10.5610

          k = 0.0000 0.1112 0.4450 (  1404 PWs)   bands (ev):

   -45.4996 -45.4943  -0.6148   0.4695   7.7122   8.9939   9.0133

          k = 0.0000 0.2225 0.2225 (  1396 PWs)   bands (ev):

   -45.5070 -45.4877  -1.6904   3.0920   4.9544   7.6588  10.5092

          k = 0.0000 0.2225 0.3337 (  1387 PWs)   bands (ev):

   -45.5031 -45.4906  -1.1065   1.9822   5.2124   8.3964   8.8102

          k = 0.0000 0.2225 0.4450 (  1402 PWs)   bands (ev):

   -45.4987 -45.4943  -0.2877   0.7577   6.0983   7.3207   9.4096

          k = 0.0000 0.3337 0.3337 (  1380 PWs)   bands (ev):

   -45.5004 -45.4922  -0.5409   1.8725   4.4414   7.1868   9.1111

          k = 0.0000 0.3337 0.4450 (  1397 PWs)   bands (ev):

   -45.4974 -45.4946   0.2281   1.1291   4.7981   5.8144  10.0679

          k = 0.0000 0.4450 0.4450 (  1398 PWs)   bands (ev):

   -45.4962 -45.4952   0.8415   1.2579   4.2180   4.6744  10.8562

          k = 0.1112 0.1112 0.1112 (  1385 PWs)   bands (ev):

   -45.5117 -45.4845  -2.2746   5.0197   5.0197   6.6312  11.0733

          k = 0.1112 0.1112 0.2225 (  1393 PWs)   bands (ev):

   -45.5087 -45.4865  -1.9233   3.4332   5.4803   6.9695  11.5346

          k = 0.1112 0.1112 0.3337 (  1394 PWs)   bands (ev):

   -45.5044 -45.4899  -1.3340   1.8977   6.2460   7.6403  10.3088

          k = 0.1112 0.1112 0.4450 (  1410 PWs)   bands (ev):

   -45.4993 -45.4943  -0.5020   0.5763   7.3129   8.5792   8.6733

          k = 0.1112 0.2225 0.2225 (  1391 PWs)   bands (ev):

   -45.5062 -45.4881  -1.5733   3.2467   4.6707   7.2094  10.5585

          k = 0.1112 0.2225 0.3337 (  1396 PWs)   bands (ev):

   -45.5026 -45.4908  -0.9888   2.1074   5.0631   7.8315   8.8317

          k = 0.1112 0.2225 0.4450 (  1399 PWs)   bands (ev):

   -45.4984 -45.4943  -0.1698   0.8760   6.0195   7.2952   8.7239

          k = 0.1112 0.3337 0.3337 (  1403 PWs)   bands (ev):

   -45.5000 -45.4923  -0.4196   2.0276   4.3631   7.2319   8.4248

          k = 0.1112 0.3337 0.4450 (  1399 PWs)   bands (ev):

   -45.4972 -45.4945   0.3551   1.2681   4.7855   5.8425   9.2794

          k = 0.1112 0.4450 0.4450 (  1406 PWs)   bands (ev):

   -45.4959 -45.4950   0.9835   1.4132   4.2220   4.7010  10.0714

          k = 0.2225 0.2225 0.2225 (  1397 PWs)   bands (ev):

   -45.5041 -45.4894  -1.2221   3.7104   3.7104   6.9843  10.5501

          k = 0.2225 0.2225 0.3337 (  1404 PWs)   bands (ev):

   -45.5010 -45.4914  -0.6374   2.4313   4.4822   7.3226   8.6100

          k = 0.2225 0.2225 0.4450 (  1410 PWs)   bands (ev):

   -45.4976 -45.4942   0.1778   1.2127   5.5597   6.9387   7.9847

          k = 0.2225 0.3337 0.3337 (  1410 PWs)   bands (ev):

   -45.4989 -45.4926  -0.0587   2.4927   4.0199   7.3421   7.4659

          k = 0.2225 0.3337 0.4450 (  1409 PWs)   bands (ev):

   -45.4965 -45.4943   0.7302   1.6741   4.6871   5.8904   7.9986

          k = 0.2225 0.4450 0.4450 (  1405 PWs)   bands (ev):

   -45.4954 -45.4947   1.4043   1.8789   4.2152   4.7789   8.4184

          k = 0.3337 0.3337 0.3337 (  1412 PWs)   bands (ev):

   -45.4973 -45.4932   0.5320   3.2671   3.2671   7.0499   7.4208

          k = 0.3337 0.3337 0.4450 (  1409 PWs)   bands (ev):

   -45.4956 -45.4942   1.3298   2.2837   4.3491   5.7357   7.1104

          k = 0.3337 0.4450 0.4450 (  1399 PWs)   bands (ev):

   -45.4948 -45.4943   2.0817   2.6543   4.1218   4.9081   6.8020

          k = 0.4450 0.4450 0.4450 (  1400 PWs)   bands (ev):

   -45.4943 -45.4941   2.9423   3.7381   3.7381   5.1277   5.1279

     the Fermi energy is     0.8980 ev

!    total energy              =     -28.95248911 Ry
     estimated scf accuracy    <          2.0E-11 Ry
     smearing contrib. (-TS)   =      -0.00072290 Ry
     internal energy E=F+TS    =     -28.95176620 Ry

     The total energy is F=E-TS. E is the sum of the following terms:
     one-electron contribution =     -19.41514886 Ry
     hartree contribution      =       7.31065564 Ry
     xc contribution           =      -6.75674449 Ry
     ewald contribution        =     -10.09052849 Ry

     convergence has been achieved in   4 iterations

     Forces acting on atoms (cartesian axes, Ry/au):

     atom    1 type  1   force =     0.00000000    0.00000000    0.00000000
     atom    2 type  1   force =     0.00000000    0.00000000    0.00000000

     Total force =     0.000000     Total SCF correction =     0.000000


     Computing stress (Cartesian axis) and pressure

          total   stress  (Ry/bohr**3)                   (kbar)     P=       -0.25
  -0.00000168   0.00000000   0.00000000           -0.25        0.00        0.00
   0.00000000  -0.00000168   0.00000000            0.00       -0.25        0.00
   0.00000000   0.00000000  -0.00000168            0.00        0.00       -0.25

     Energy error            =      8.2E-07
     Gradient error          =      0.0E+00
     Cell gradient error     =      1.7E-06


     bfgs converged in   4 scf cycles and   3 bfgs steps
     (criteria: energy <  1.0E-04 Ry, force <  1.0E-03Ry/Bohr, cell <  5.0E-01kbar)

     End of BFGS Geometry Optimization

     Final enthalpy =     -28.9524891059 Ry

     File ./Li.bfgs deleted, as requested
Begin final coordinates
     new unit-cell volume =    273.59334 a.u.^3 (    40.54235 Ang^3 )
     density =      0.56850 g/cm^3

CELL_PARAMETERS (angstrom)
   3.435339323   0.000000000   0.000000000
   0.000000000   3.435339323   0.000000000
   0.000000000   0.000000000   3.435339323

ATOMIC_POSITIONS (angstrom)
Li            0.0000000000        0.0000000000        0.0000000000
Li            1.7176696616        1.7176696616        1.7176696616
End final coordinates



     Writing output data file ./Li.save/

     Final scf calculation at the relaxed structure.
     The G-vectors are recalculated for the final unit cell
     Results may differ from those at the preceding step.

     Parallelization info
     --------------------
     sticks:   dense  smooth     PW     G-vecs:    dense   smooth      PW
     Min         300     148     46                 7864     2768     482
     Max         301     149     47                 7869     2771     485
     Sum        1201     593    185                31463    11075    1935



     bravais-lattice index     =            0
     lattice parameter (alat)  =       6.4994  a.u.
     unit-cell volume          =     273.5933 (a.u.)^3
     number of atoms/cell      =            2
     number of atomic types    =            1
     number of electrons       =         6.00
     number of Kohn-Sham states=            7
     kinetic-energy cutoff     =      45.0000  Ry
     charge density cutoff     =     360.0000  Ry
     scf convergence threshold =      1.0E-08
     mixing beta               =       0.7000
     number of iterations used =            8  plain     mixing
     press convergence thresh. =      5.0E-01
     Exchange-correlation= VDW-DF2-B86R
                           (   1   4  26   0   2   0   0)

     celldm(1)=   6.499358  celldm(2)=   0.000000  celldm(3)=   0.000000
     celldm(4)=   0.000000  celldm(5)=   0.000000  celldm(6)=   0.000000

     crystal axes: (cart. coord. in units of alat)
               a(1) = (   0.998845   0.000000   0.000000 )  
               a(2) = (   0.000000   0.998845   0.000000 )  
               a(3) = (   0.000000   0.000000   0.998845 )  

     reciprocal axes: (cart. coord. in units 2 pi/alat)
               b(1) = (  1.001156  0.000000  0.000000 )  
               b(2) = (  0.000000  1.001156  0.000000 )  
               b(3) = (  0.000000  0.000000  1.001156 )  


     PseudoPot. # 1 for Li read from file:
     /home/zinnia7/espresso/pseudo/li_pbe_v1.4.uspp.F.UPF
     MD5 check sum: e912e257baa3777c20ea3d68f190483c
     Pseudo is Ultrasoft, Zval =  3.0
     Generated by new atomic code, or converted to UPF format
     Using radial grid of  751 points,  5 beta functions with: 
                l(1) =   0
                l(2) =   0
                l(3) =   0
                l(4) =   1
                l(5) =   1
     Q(r) pseudized with 10 coefficients,  rinner =    1.150   1.150   1.150


     atomic species   valence    mass     pseudopotential
        Li             3.00     6.94000     Li( 1.00)

     48 Sym. Ops., with inversion, found



   Cartesian axes

     site n.     atom                  positions (alat units)
         1           Li  tau(   1) = (   0.0000000   0.0000000   0.0000000  )
         2           Li  tau(   2) = (   0.4994225   0.4994225   0.4994225  )

     number of k points=    35  Gaussian smearing, width (Ry)=  0.0100
                       cart. coord. in units 2pi/alat
        k(    1) = (   0.0000000   0.0000000   0.0000000), wk =   0.0027435
        k(    2) = (   0.0000000   0.0000000   0.1112396), wk =   0.0164609
        k(    3) = (   0.0000000   0.0000000   0.2224792), wk =   0.0164609
        k(    4) = (   0.0000000   0.0000000   0.3337188), wk =   0.0164609
        k(    5) = (   0.0000000   0.0000000   0.4449584), wk =   0.0164609
        k(    6) = (   0.0000000   0.1112396   0.1112396), wk =   0.0329218
        k(    7) = (   0.0000000   0.1112396   0.2224792), wk =   0.0658436
        k(    8) = (   0.0000000   0.1112396   0.3337188), wk =   0.0658436
        k(    9) = (   0.0000000   0.1112396   0.4449584), wk =   0.0658436
        k(   10) = (   0.0000000   0.2224792   0.2224792), wk =   0.0329218
        k(   11) = (   0.0000000   0.2224792   0.3337188), wk =   0.0658436
        k(   12) = (   0.0000000   0.2224792   0.4449584), wk =   0.0658436
        k(   13) = (   0.0000000   0.3337188   0.3337188), wk =   0.0329218
        k(   14) = (   0.0000000   0.3337188   0.4449584), wk =   0.0658436
        k(   15) = (   0.0000000   0.4449584   0.4449584), wk =   0.0329218
        k(   16) = (   0.1112396   0.1112396   0.1112396), wk =   0.0219479
        k(   17) = (   0.1112396   0.1112396   0.2224792), wk =   0.0658436
        k(   18) = (   0.1112396   0.1112396   0.3337188), wk =   0.0658436
        k(   19) = (   0.1112396   0.1112396   0.4449584), wk =   0.0658436
        k(   20) = (   0.1112396   0.2224792   0.2224792), wk =   0.0658436
        k(   21) = (   0.1112396   0.2224792   0.3337188), wk =   0.1316872
        k(   22) = (   0.1112396   0.2224792   0.4449584), wk =   0.1316872
        k(   23) = (   0.1112396   0.3337188   0.3337188), wk =   0.0658436
        k(   24) = (   0.1112396   0.3337188   0.4449584), wk =   0.1316872
        k(   25) = (   0.1112396   0.4449584   0.4449584), wk =   0.0658436
        k(   26) = (   0.2224792   0.2224792   0.2224792), wk =   0.0219479
        k(   27) = (   0.2224792   0.2224792   0.3337188), wk =   0.0658436
        k(   28) = (   0.2224792   0.2224792   0.4449584), wk =   0.0658436
        k(   29) = (   0.2224792   0.3337188   0.3337188), wk =   0.0658436
        k(   30) = (   0.2224792   0.3337188   0.4449584), wk =   0.1316872
        k(   31) = (   0.2224792   0.4449584   0.4449584), wk =   0.0658436
        k(   32) = (   0.3337188   0.3337188   0.3337188), wk =   0.0219479
        k(   33) = (   0.3337188   0.3337188   0.4449584), wk =   0.0658436
        k(   34) = (   0.3337188   0.4449584   0.4449584), wk =   0.0658436
        k(   35) = (   0.4449584   0.4449584   0.4449584), wk =   0.0219479

     Dense  grid:    31463 G-vectors     FFT dimensions: (  40,  40,  40)

     Smooth grid:    11075 G-vectors     FFT dimensions: (  27,  27,  27)

     Estimated max dynamical RAM per process >      14.21 MB

     Estimated total dynamical RAM >      56.84 MB

     Initial potential from superposition of free atoms

     starting charge    5.09851, renormalised to    6.00000
     Starting wfcs are   10 randomized atomic wfcs

     total cpu time spent up to now is       91.0 secs

     Self-consistent Calculation

     iteration #  1     ecut=    45.00 Ry     beta= 0.70
     Davidson diagonalization with overlap
     c_bands:  1 eigenvalues not converged
     c_bands:  1 eigenvalues not converged
     c_bands:  1 eigenvalues not converged
     ethr =  1.00E-06,  avg # of iterations = 15.5

     total cpu time spent up to now is       92.8 secs

     total energy              =     -28.93966024 Ry
     estimated scf accuracy    <       0.33780415 Ry

     iteration #  2     ecut=    45.00 Ry     beta= 0.70
     Davidson diagonalization with overlap
     ethr =  5.63E-03,  avg # of iterations =  1.0

     total cpu time spent up to now is       93.2 secs

     total energy              =     -28.94441958 Ry
     estimated scf accuracy    <       0.01610520 Ry

     iteration #  3     ecut=    45.00 Ry     beta= 0.70
     Davidson diagonalization with overlap
     ethr =  2.68E-04,  avg # of iterations =  2.6

     total cpu time spent up to now is       93.8 secs

     total energy              =     -28.95236985 Ry
     estimated scf accuracy    <       0.00021780 Ry

     iteration #  4     ecut=    45.00 Ry     beta= 0.70
     Davidson diagonalization with overlap
     ethr =  3.63E-06,  avg # of iterations =  3.7

     total cpu time spent up to now is       94.5 secs

     total energy              =     -28.95248572 Ry
     estimated scf accuracy    <       0.00000402 Ry

     iteration #  5     ecut=    45.00 Ry     beta= 0.70
     Davidson diagonalization with overlap
     ethr =  6.70E-08,  avg # of iterations =  3.5

     total cpu time spent up to now is       95.1 secs

     total energy              =     -28.95248872 Ry
     estimated scf accuracy    <       0.00000036 Ry

     iteration #  6     ecut=    45.00 Ry     beta= 0.70
     Davidson diagonalization with overlap
     ethr =  6.01E-09,  avg # of iterations =  1.8

     total cpu time spent up to now is       95.6 secs

     total energy              =     -28.95248878 Ry
     estimated scf accuracy    <       0.00000001 Ry

     iteration #  7     ecut=    45.00 Ry     beta= 0.70
     Davidson diagonalization with overlap
     ethr =  2.33E-10,  avg # of iterations =  3.2

     total cpu time spent up to now is       96.2 secs

     End of self-consistent calculation

          k = 0.0000 0.0000 0.0000 (  1365 PWs)   bands (ev):

   -45.5148 -45.4820  -2.6248   6.4594   6.4594   6.4594   8.7071

          k = 0.0000 0.0000 0.1112 (  1370 PWs)   bands (ev):

   -45.5136 -45.4828  -2.5080   5.1290   6.6105   6.6105   8.8644

          k = 0.0000 0.0000 0.2225 (  1390 PWs)   bands (ev):

   -45.5103 -45.4852  -2.1560   3.3240   7.0628   7.0628   9.3361

          k = 0.0000 0.0000 0.3337 (  1390 PWs)   bands (ev):

   -45.5054 -45.4890  -1.5642   1.7180   7.8127   7.8127  10.1223

          k = 0.0000 0.0000 0.4450 (  1414 PWs)   bands (ev):

   -45.4997 -45.4940  -0.7260   0.3663   8.8530   8.8530  10.1674

          k = 0.0000 0.1112 0.1112 (  1382 PWs)   bands (ev):

   -45.5125 -45.4835  -2.3913   4.8661   5.7855   6.7612   9.8013

          k = 0.0000 0.1112 0.2225 (  1389 PWs)   bands (ev):

   -45.5094 -45.4857  -2.0398   3.3603   5.9785   7.2122  10.4697

          k = 0.0000 0.1112 0.3337 (  1389 PWs)   bands (ev):

   -45.5047 -45.4893  -1.4495   1.8032   6.6907   7.9594  10.5610

          k = 0.0000 0.1112 0.4450 (  1398 PWs)   bands (ev):

   -45.4994 -45.4940  -0.6148   0.4695   7.7122   8.9940   9.0133

          k = 0.0000 0.2225 0.2225 (  1392 PWs)   bands (ev):

   -45.5067 -45.4875  -1.6904   3.0920   4.9545   7.6588  10.5092

          k = 0.0000 0.2225 0.3337 (  1385 PWs)   bands (ev):

   -45.5029 -45.4903  -1.1065   1.9822   5.2125   8.3964   8.8102

          k = 0.0000 0.2225 0.4450 (  1398 PWs)   bands (ev):

   -45.4984 -45.4941  -0.2877   0.7577   6.0983   7.3207   9.4096

          k = 0.0000 0.3337 0.3337 (  1380 PWs)   bands (ev):

   -45.5002 -45.4920  -0.5409   1.8725   4.4414   7.1868   9.1112

          k = 0.0000 0.3337 0.4450 (  1397 PWs)   bands (ev):

   -45.4971 -45.4943   0.2281   1.1291   4.7981   5.8144  10.0679

          k = 0.0000 0.4450 0.4450 (  1388 PWs)   bands (ev):

   -45.4959 -45.4949   0.8415   1.2579   4.2180   4.6744  10.8560

          k = 0.1112 0.1112 0.1112 (  1385 PWs)   bands (ev):

   -45.5114 -45.4842  -2.2746   5.0198   5.0198   6.6312  11.0733

          k = 0.1112 0.1112 0.2225 (  1387 PWs)   bands (ev):

   -45.5085 -45.4863  -1.9233   3.4332   5.4803   6.9695  11.5346

          k = 0.1112 0.1112 0.3337 (  1390 PWs)   bands (ev):

   -45.5041 -45.4896  -1.3340   1.8977   6.2460   7.6403  10.3088

          k = 0.1112 0.1112 0.4450 (  1401 PWs)   bands (ev):

   -45.4990 -45.4940  -0.5020   0.5763   7.3130   8.5792   8.6733

          k = 0.1112 0.2225 0.2225 (  1385 PWs)   bands (ev):

   -45.5060 -45.4879  -1.5733   3.2467   4.6707   7.2094  10.5585

          k = 0.1112 0.2225 0.3337 (  1391 PWs)   bands (ev):

   -45.5023 -45.4905  -0.9888   2.1074   5.0631   7.8315   8.8318

          k = 0.1112 0.2225 0.4450 (  1399 PWs)   bands (ev):

   -45.4981 -45.4940  -0.1698   0.8760   6.0196   7.2952   8.7240

          k = 0.1112 0.3337 0.3337 (  1397 PWs)   bands (ev):

   -45.4997 -45.4920  -0.4196   2.0276   4.3631   7.2319   8.4248

          k = 0.1112 0.3337 0.4450 (  1395 PWs)   bands (ev):

   -45.4969 -45.4942   0.3551   1.2681   4.7855   5.8426   9.2795

          k = 0.1112 0.4450 0.4450 (  1397 PWs)   bands (ev):

   -45.4957 -45.4947   0.9835   1.4132   4.2220   4.7010  10.0715

          k = 0.2225 0.2225 0.2225 (  1397 PWs)   bands (ev):

   -45.5038 -45.4891  -1.2221   3.7104   3.7104   6.9843  10.5501

          k = 0.2225 0.2225 0.3337 (  1402 PWs)   bands (ev):

   -45.5008 -45.4911  -0.6374   2.4313   4.4822   7.3226   8.6100

          k = 0.2225 0.2225 0.4450 (  1401 PWs)   bands (ev):

   -45.4973 -45.4939   0.1778   1.2127   5.5597   6.9387   7.9847

          k = 0.2225 0.3337 0.3337 (  1406 PWs)   bands (ev):

   -45.4986 -45.4923  -0.0587   2.4927   4.0199   7.3421   7.4659

          k = 0.2225 0.3337 0.4450 (  1402 PWs)   bands (ev):

   -45.4962 -45.4940   0.7302   1.6741   4.6871   5.8904   7.9986

          k = 0.2225 0.4450 0.4450 (  1396 PWs)   bands (ev):

   -45.4951 -45.4944   1.4043   1.8789   4.2152   4.7789   8.4184

          k = 0.3337 0.3337 0.3337 (  1412 PWs)   bands (ev):

   -45.4970 -45.4929   0.5320   3.2671   3.2671   7.0499   7.4209

          k = 0.3337 0.3337 0.4450 (  1409 PWs)   bands (ev):

   -45.4953 -45.4939   1.3298   2.2837   4.3491   5.7357   7.1104

          k = 0.3337 0.4450 0.4450 (  1397 PWs)   bands (ev):

   -45.4945 -45.4940   2.0817   2.6543   4.1218   4.9081   6.8024

          k = 0.4450 0.4450 0.4450 (  1400 PWs)   bands (ev):

   -45.4940 -45.4938   2.9423   3.7381   3.7381   5.1277   5.1277

     the Fermi energy is     0.8980 ev

!    total energy              =     -28.95248879 Ry
     estimated scf accuracy    <          4.9E-10 Ry
     smearing contrib. (-TS)   =      -0.00072290 Ry
     internal energy E=F+TS    =     -28.95176589 Ry

     The total energy is F=E-TS. E is the sum of the following terms:
     one-electron contribution =     -19.41514445 Ry
     hartree contribution      =       7.31064915 Ry
     xc contribution           =      -6.75674209 Ry
     ewald contribution        =     -10.09052849 Ry

     convergence has been achieved in   7 iterations

     Forces acting on atoms (cartesian axes, Ry/au):

     atom    1 type  1   force =     0.00000000    0.00000000    0.00000000
     atom    2 type  1   force =     0.00000000    0.00000000    0.00000000

     Total force =     0.000000     Total SCF correction =     0.000000


     Computing stress (Cartesian axis) and pressure

          total   stress  (Ry/bohr**3)                   (kbar)     P=       -0.29
  -0.00000199   0.00000000   0.00000000           -0.29        0.00        0.00
   0.00000000  -0.00000199   0.00000000            0.00       -0.29        0.00
   0.00000000   0.00000000  -0.00000199            0.00        0.00       -0.29


     Writing output data file ./Li.save/

     init_run     :     77.14s CPU     77.16s WALL (       2 calls)
     electrons    :     13.51s CPU     14.43s WALL (       5 calls)
     update_pot   :      1.42s CPU      1.44s WALL (       3 calls)
     forces       :      0.80s CPU      0.82s WALL (       5 calls)
     stress       :      2.98s CPU      3.00s WALL (       5 calls)

     Called by init_run:
     wfcinit      :      0.30s CPU      0.32s WALL (       2 calls)
     potinit      :     76.28s CPU     76.28s WALL (       2 calls)
     hinit0       :      0.45s CPU      0.45s WALL (       2 calls)

     Called by electrons:
     c_bands      :      9.15s CPU      9.89s WALL (      24 calls)
     sum_band     :      1.15s CPU      1.27s WALL (      24 calls)
     v_of_rho     :     79.42s CPU     79.48s WALL (      26 calls)
     newd         :      0.19s CPU      0.21s WALL (      26 calls)
     mix_rho      :      0.02s CPU      0.02s WALL (      24 calls)
     vdW_kernel   :     75.73s CPU     75.73s WALL (       1 calls)

     Called by c_bands:
     init_us_2    :      0.19s CPU      0.21s WALL (    2100 calls)
     cegterg      :      8.81s CPU      9.52s WALL (     840 calls)

     Called by *egterg:
     cdiaghg      :      1.42s CPU      1.54s WALL (    3138 calls)
     h_psi        :      5.38s CPU      5.81s WALL (    3418 calls)
     s_psi        :      0.29s CPU      0.32s WALL (    3418 calls)
     g_psi        :      0.08s CPU      0.08s WALL (    2508 calls)

     Called by h_psi:
     h_psi:calbec :      0.44s CPU      0.48s WALL (    3418 calls)
     vloc_psi     :      4.60s CPU      4.96s WALL (    3418 calls)
     add_vuspsi   :      0.30s CPU      0.32s WALL (    3418 calls)

     General routines
     calbec       :      0.78s CPU      0.84s WALL (    5133 calls)
     fft          :      1.32s CPU      1.34s WALL (    1894 calls)
     ffts         :      0.01s CPU      0.01s WALL (      50 calls)
     fftw         :      4.89s CPU      5.30s WALL (   41698 calls)
     interpolate  :      0.02s CPU      0.02s WALL (      26 calls)

     Parallel routines
     fft_scatt_xy :      0.48s CPU      0.52s WALL (   43642 calls)
     fft_scatt_yz :      2.67s CPU      2.84s WALL (   43642 calls)

     PWSCF        :   1m36.00s CPU   1m37.05s WALL


   This run was terminated on:  14:46:41  17Jun2023            

=------------------------------------------------------------------------------=
   JOB DONE.
=------------------------------------------------------------------------------=
