
     Program PWSCF v.6.7MaX starts on 17Jun2023 at 14:56: 2 

     This program is part of the open-source Quantum ESPRESSO suite
     for quantum simulation of materials; please cite
         "P. Giannozzi et al., J. Phys.:Condens. Matter 21 395502 (2009);
         "P. Giannozzi et al., J. Phys.:Condens. Matter 29 465901 (2017);
          URL http://www.quantum-espresso.org", 
     in publications or presentations arising from this work. More details at
     http://www.quantum-espresso.org/quote

     Parallel version (MPI), running on     4 processors

     MPI processes distributed on     1 nodes
     R & G space division:  proc/nbgrp/npool/nimage =       4
     Waiting for input...
     Reading input from standard input

     Current dimensions of program PWSCF are:
     Max number of different atomic species (ntypx) = 10
     Max number of k-points (npk) =  40000
     Max angular momentum in pseudopotentials (lmaxx) =  3
     file C.pbe-n-kjpaw_psl.1.0.0.UPF: wavefunction(s)  2S 2P renormalized

     IMPORTANT: XC functional enforced from input :
     Exchange-correlation= VDW-DF2-B86R
                           (   1   4  26   0   2   0   0)
     Any further DFT definition will be discarded
     Please, verify this is what you really want


     Subspace diagonalization in iterative solution of the eigenvalue problem:
     one sub-group per band group will be used
     scalapack distributed-memory algorithm (size of sub-group:  2*  2 procs)

     Message from routine setup:
     using ibrav=0 with symmetry is DISCOURAGED, use correct ibrav instead

     Parallelization info
     --------------------
     sticks:   dense  smooth     PW     G-vecs:    dense   smooth      PW
     Min         406     203     60                21684     7678    1182
     Max         407     205     61                21689     7681    1185
     Sum        1627     817    241                86751    30717    4735



     bravais-lattice index     =            0
     lattice parameter (alat)  =       8.0864  a.u.
     unit-cell volume          =     751.9817 (a.u.)^3
     number of atoms/cell      =           13
     number of atomic types    =            2
     number of electrons       =        51.00
     number of Kohn-Sham states=           31
     kinetic-energy cutoff     =      45.0000  Ry
     charge density cutoff     =     360.0000  Ry
     scf convergence threshold =      1.0E-06
     mixing beta               =       0.7000
     number of iterations used =            8  plain     mixing
     energy convergence thresh.=      1.0E-04
     force convergence thresh. =      1.0E-03
     press convergence thresh. =      5.0E-01
     Exchange-correlation= VDW-DF2-B86R
                           (   1   4  26   0   2   0   0)
     nstep                     =           50


     celldm(1)=   8.086395  celldm(2)=   0.000000  celldm(3)=   0.000000
     celldm(4)=   0.000000  celldm(5)=   0.000000  celldm(6)=   0.000000

     crystal axes: (cart. coord. in units of alat)
               a(1) = (   1.000000   0.000000   0.000000 )  
               a(2) = (  -0.500000   0.866026   0.000000 )  
               a(3) = (   0.000000   0.000000   1.642146 )  

     reciprocal axes: (cart. coord. in units 2 pi/alat)
               b(1) = (  1.000000  0.577350 -0.000000 )  
               b(2) = (  0.000000  1.154700  0.000000 )  
               b(3) = (  0.000000 -0.000000  0.608959 )  


     PseudoPot. # 1 for Li read from file:
     /home/zinnia7/espresso/pseudo/li_pbe_v1.4.uspp.F.UPF
     MD5 check sum: e912e257baa3777c20ea3d68f190483c
     Pseudo is Ultrasoft, Zval =  3.0
     Generated by new atomic code, or converted to UPF format
     Using radial grid of  751 points,  5 beta functions with: 
                l(1) =   0
                l(2) =   0
                l(3) =   0
                l(4) =   1
                l(5) =   1
     Q(r) pseudized with 10 coefficients,  rinner =    1.150   1.150   1.150


     PseudoPot. # 2 for C  read from file:
     /home/zinnia7/espresso/pseudo/C.pbe-n-kjpaw_psl.1.0.0.UPF
     MD5 check sum: 5d2aebdfa2cae82b50a7e79e9516da0f
     Pseudo is Projector augmented-wave + core cor, Zval =  4.0
     Generated using "atomic" code by A. Dal Corso  v.5.1
     Shape of augmentation charge: PSQ
     Using radial grid of 1073 points,  4 beta functions with: 
                l(1) =   0
                l(2) =   0
                l(3) =   1
                l(4) =   1
     Q(r) pseudized with 0 coefficients 


     atomic species   valence    mass     pseudopotential
        Li             3.00     6.94000     Li( 1.00)
        C              4.00    12.01100     C ( 1.00)

     24 Sym. Ops., with inversion, found



   Cartesian axes

     site n.     atom                  positions (alat units)
         1           Li  tau(   1) = (   0.0000000   0.0000000   0.0000000  )
         2           C   tau(   2) = (   0.3334098   0.5774827   1.2078471  )
         3           C   tau(   3) = (   0.3331806   0.0000000   1.2078471  )
         4           C   tau(   4) = (   0.8334098   0.2885428   1.2078471  )
         5           C   tau(   5) = (   0.1665902   0.2885428   1.2078471  )
         6           C   tau(   6) = (   0.6668194   0.0000000   1.2078471  )
         7           C   tau(   7) = (  -0.3334098   0.5774827   1.2078471  )
         8           C   tau(   8) = (   0.1665902   0.2885428   0.4342989  )
         9           C   tau(   9) = (   0.6668194   0.0000000   0.4342989  )
        10           C   tau(  10) = (  -0.3334098   0.5774827   0.4342989  )
        11           C   tau(  11) = (   0.3334098   0.5774827   0.4342989  )
        12           C   tau(  12) = (   0.3331806   0.0000000   0.4342989  )
        13           C   tau(  13) = (   0.8334098   0.2885428   0.4342989  )

     number of k points=    24  Gaussian smearing, width (Ry)=  0.0100
                       cart. coord. in units 2pi/alat
        k(    1) = (   0.0000000   0.0000000   0.0000000), wk =   0.0081633
        k(    2) = (   0.0000000   0.0000000   0.1217919), wk =   0.0163265
        k(    3) = (   0.0000000   0.0000000   0.2435837), wk =   0.0163265
        k(    4) = (   0.0000000   0.1649572   0.0000000), wk =   0.0489796
        k(    5) = (   0.0000000   0.1649572   0.1217919), wk =   0.0979592
        k(    6) = (   0.0000000   0.1649572   0.2435837), wk =   0.0979592
        k(    7) = (   0.0000000   0.3299144   0.0000000), wk =   0.0489796
        k(    8) = (   0.0000000   0.3299144   0.1217919), wk =   0.0979592
        k(    9) = (   0.0000000   0.3299144   0.2435837), wk =   0.0979592
        k(   10) = (   0.0000000   0.4948716   0.0000000), wk =   0.0489796
        k(   11) = (   0.0000000   0.4948716   0.1217919), wk =   0.0979592
        k(   12) = (   0.0000000   0.4948716   0.2435837), wk =   0.0979592
        k(   13) = (   0.1428571   0.2474358   0.0000000), wk =   0.0489796
        k(   14) = (   0.1428571   0.2474358   0.1217919), wk =   0.0979592
        k(   15) = (   0.1428571   0.2474358   0.2435837), wk =   0.0979592
        k(   16) = (   0.1428571   0.4123930   0.0000000), wk =   0.0979592
        k(   17) = (   0.1428571   0.4123930   0.1217919), wk =   0.1959184
        k(   18) = (   0.1428571   0.4123930   0.2435837), wk =   0.1959184
        k(   19) = (   0.1428571   0.5773502   0.0000000), wk =   0.0489796
        k(   20) = (   0.1428571   0.5773502   0.1217919), wk =   0.0979592
        k(   21) = (   0.1428571   0.5773502   0.2435837), wk =   0.0979592
        k(   22) = (   0.2857143   0.4948716   0.0000000), wk =   0.0489796
        k(   23) = (   0.2857143   0.4948716   0.1217919), wk =   0.0979592
        k(   24) = (   0.2857143   0.4948716   0.2435837), wk =   0.0979592

     Dense  grid:    86751 G-vectors     FFT dimensions: (  50,  50,  81)

     Smooth grid:    30717 G-vectors     FFT dimensions: (  36,  36,  60)

     Estimated max dynamical RAM per process >      57.28 MB

     Estimated total dynamical RAM >     229.13 MB

     Check: negative core charge=   -0.000011

     Initial potential from superposition of free atoms

     starting charge   50.54876, renormalised to   51.00000


     %%%%%%%%%%%%%%%%%%%%%%%%%%%%%%%%%%%%%%%%%%%%%%%%%%%%%%%%%%%%%%%%%%%%%%%%
     %                                                                      %
     % You are using vdW-DF, which was implemented by the Thonhauser group. %
     % Please cite the following two papers that made this development      %
     % possible and the two reviews that describe the various versions:     %
     %                                                                      %
     %   T. Thonhauser et al., PRL 115, 136402 (2015).                      %
     %   T. Thonhauser et al., PRB 76, 125112 (2007).                       %
     %   K. Berland et al., Rep. Prog. Phys. 78, 066501 (2015).             %
     %   D.C. Langreth et al., J. Phys.: Condens. Matter 21, 084203 (2009). %
     %                                                                      %
     %                                                                      %
     % If you are calculating the stress with vdW-DF, please also cite:     %
     %                                                                      %
     %   R. Sabatini et al., J. Phys.: Condens. Matter 24, 424209 (2012).   %
     %                                                                      %
     %%%%%%%%%%%%%%%%%%%%%%%%%%%%%%%%%%%%%%%%%%%%%%%%%%%%%%%%%%%%%%%%%%%%%%%%


     Starting wfcs are   53 randomized atomic wfcs
     Checking if some PAW data can be deallocated... 

     total cpu time spent up to now is       81.4 secs

     Self-consistent Calculation

     iteration #  1     ecut=    45.00 Ry     beta= 0.70
     Davidson diagonalization with overlap
     ethr =  1.00E-02,  avg # of iterations =  2.0

     total cpu time spent up to now is       89.1 secs

     total energy              =    -235.20196076 Ry
     estimated scf accuracy    <       1.01402534 Ry

     iteration #  2     ecut=    45.00 Ry     beta= 0.70
     Davidson diagonalization with overlap
     ethr =  1.99E-03,  avg # of iterations =  2.4

     total cpu time spent up to now is       96.4 secs

     total energy              =    -235.34316145 Ry
     estimated scf accuracy    <       0.07396732 Ry

     iteration #  3     ecut=    45.00 Ry     beta= 0.70
     Davidson diagonalization with overlap
     ethr =  1.45E-04,  avg # of iterations =  7.8

     total cpu time spent up to now is      104.9 secs

     total energy              =    -235.36109035 Ry
     estimated scf accuracy    <       0.07165963 Ry

     iteration #  4     ecut=    45.00 Ry     beta= 0.70
     Davidson diagonalization with overlap
     ethr =  1.41E-04,  avg # of iterations =  2.1

     total cpu time spent up to now is      111.5 secs

     total energy              =    -235.37565243 Ry
     estimated scf accuracy    <       0.00072495 Ry

     iteration #  5     ecut=    45.00 Ry     beta= 0.70
     Davidson diagonalization with overlap
     c_bands:  1 eigenvalues not converged
     c_bands:  1 eigenvalues not converged
     c_bands:  1 eigenvalues not converged
     c_bands:  1 eigenvalues not converged
     c_bands:  1 eigenvalues not converged
     ethr =  1.42E-06,  avg # of iterations = 12.0

     total cpu time spent up to now is      121.8 secs

     total energy              =    -235.37586038 Ry
     estimated scf accuracy    <       0.00017045 Ry

     iteration #  6     ecut=    45.00 Ry     beta= 0.70
     Davidson diagonalization with overlap
     c_bands:  1 eigenvalues not converged
     ethr =  3.34E-07,  avg # of iterations =  3.6

     total cpu time spent up to now is      128.3 secs

     total energy              =    -235.37588590 Ry
     estimated scf accuracy    <       0.00000471 Ry

     iteration #  7     ecut=    45.00 Ry     beta= 0.70
     Davidson diagonalization with overlap
     ethr =  9.24E-09,  avg # of iterations =  4.2

     total cpu time spent up to now is      136.3 secs

     End of self-consistent calculation

          k = 0.0000 0.0000 0.0000 (  3827 PWs)   bands (ev):

   -39.3022 -12.4075 -12.1945  -5.5666  -5.5666  -5.3968  -5.3968  -5.3928
    -5.3928  -5.2387  -5.2386  -3.4935  -3.4484  -3.3466  -3.2377  -1.4303
     0.1848   4.1024   4.1025   4.1320   4.1321   6.0712   6.0712   6.4889
     6.4889   7.4766   7.4766   7.6823   7.6823  10.1843  15.3641

          k = 0.0000 0.0000 0.1218 (  3844 PWs)   bands (ev):

   -39.3022 -12.3933 -12.2101  -5.5515  -5.5515  -5.4131  -5.4131  -5.3805
    -5.3805  -5.2518  -5.2518  -3.5070  -3.4354  -3.3380  -3.2466  -1.3100
     0.0134   4.1047   4.1047   4.1298   4.1298   6.1862   6.1862   6.5851
     6.5851   7.3171   7.3172   7.5575   7.5575  10.5703  15.2244

          k = 0.0000 0.0000 0.2436 (  3838 PWs)   bands (ev):

   -39.3022 -12.3631 -12.2427  -5.5128  -5.5128  -5.4536  -5.4536  -5.3521
    -5.3520  -5.2816  -5.2816  -3.5221  -3.4212  -3.3184  -3.2667  -1.0083
    -0.3678   4.1097   4.1097   4.1249   4.1249   6.5019   6.5019   6.8338
     6.8338   6.9321   6.9321   7.2636   7.2636  11.4983  13.8034

          k = 0.0000 0.1650 0.0000 (  3853 PWs)   bands (ev):

   -39.3022 -12.2469 -12.0353  -6.9261  -6.7555  -6.3096  -6.1323  -5.3701
    -5.2350  -4.3846  -4.2412  -2.7511  -2.6760  -2.3862  -2.2932  -1.2378
     0.3721   3.4767   3.5167   3.7522   3.7872   4.7238   5.0953   6.1141
     6.4534   7.3399   7.8246   8.6298   9.0428  10.3535  15.4150

          k = 0.0000 0.1650 0.1218 (  3847 PWs)   bands (ev):

   -39.3022 -12.2328 -12.0509  -6.9122  -6.7704  -6.2943  -6.1487  -5.3602
    -5.2456  -4.3725  -4.2541  -2.7502  -2.6776  -2.3797  -2.3001  -1.1175
     0.2007   3.4800   3.5134   3.7552   3.7844   4.8372   5.2073   5.9581
     6.3014   7.4457   7.9265   8.4865   8.9088  10.7388  15.4600

          k = 0.0000 0.1650 0.2436 (  3833 PWs)   bands (ev):

   -39.3022 -12.2025 -12.0836  -6.8794  -6.8049  -6.2566  -6.1883  -5.3383
    -5.2685  -4.3430  -4.2847  -2.7489  -2.6799  -2.3661  -2.3143  -0.8148
    -0.1815   3.4874   3.5061   3.7620   3.7782   5.1441   5.5123   5.5848
     5.9341   7.7272   8.1467   8.1995   8.5850  11.6578  13.9958

          k = 0.0000 0.3299 0.0000 (  3853 PWs)   bands (ev):

   -39.3021 -11.7670 -11.5596  -8.5039  -8.3216  -6.8612  -6.6738  -5.8065
    -5.6794  -3.0444  -2.9206  -1.4933  -1.4130  -0.7280  -0.6140  -0.6047
     0.9283   2.0004   2.0603   2.7820   2.8423   3.0768   4.3134   4.5341
     5.6956   7.7731   9.1521   9.6653  10.7925  10.8399  14.3528

          k = 0.0000 0.3299 0.1218 (  3832 PWs)   bands (ev):

   -39.3021 -11.7529 -11.5751  -8.4898  -8.3368  -6.8451  -6.6912  -5.7985
    -5.6879  -3.0339  -2.9316  -1.4888  -1.4179  -0.6924  -0.6106  -0.5242
     0.7569   2.0054   2.0553   2.7922   2.8385   3.1886   4.3698   4.4274
     5.5417   7.8808   8.9970   9.7598  10.6690  11.2203  14.6382

          k = 0.0000 0.3299 0.2436 (  3831 PWs)   bands (ev):

   -39.3021 -11.7225 -11.6078  -8.4577  -8.3708  -6.8052  -6.7332  -5.7823
    -5.7051  -3.0087  -2.9577  -1.4800  -1.4273  -0.6663  -0.6233  -0.2343
     0.3732   2.0172   2.0436   2.8071   2.8297   3.4949   3.9854   4.7373
     5.1690   8.1607   8.6458  10.0139  10.3691  12.1031  14.5148

          k = 0.0000 0.4949 0.0000 (  3841 PWs)   bands (ev):

   -39.3021 -10.9740 -10.7753  -9.8747  -9.6789  -7.1381  -6.9454  -6.0690
    -5.9434  -1.4804  -1.3777  -0.0586   0.0302   0.2460   0.2657   0.3273
     0.5628   0.6024   1.4122   1.5141   1.5793   1.8285   3.0723   3.9175
     5.3129   7.8802   9.3253  11.5492  11.7584  12.7575  13.0956

          k = 0.0000 0.4949 0.1218 (  3831 PWs)   bands (ev):

   -39.3021 -10.9603 -10.7903  -9.8599  -9.6949  -7.1216  -6.9633  -6.0617
    -5.9512  -1.4718  -1.3867  -0.0479   0.0240   0.2528   0.3203   0.3738
     0.5735   0.5976   1.4311   1.5087   1.6327   1.7140   2.9006   4.0326
     5.1577   7.9882   9.1639  11.8433  11.9110  12.6486  13.4395

          k = 0.0000 0.4949 0.2436 (  3839 PWs)   bands (ev):

   -39.3021 -10.9307 -10.8220  -9.8270  -9.7301  -7.0806  -7.0067  -6.0472
    -5.9665  -1.4511  -1.4079  -0.0304   0.0108   0.2690   0.3039   0.5472
     0.5846   0.7110   1.2615   1.4694   1.5104   1.9768   2.5101   4.3455
     4.7819   8.2634   8.8077  12.0704  12.3842  12.7007  14.2301

          k = 0.1429 0.2474 0.0000 (  3827 PWs)   bands (ev):

   -39.3022 -11.9266 -11.7178  -7.6675  -7.5880  -7.5009  -7.3999  -4.4883
    -4.4196  -4.3433  -4.3003  -1.4562  -1.3766  -1.3232  -1.2374  -0.8506
     0.7439   2.3436   2.4003   3.2160   3.2578   3.9065   3.9428   5.3040
     5.3921   8.4074   8.5618   9.7287   9.7368  10.6830  15.0894

          k = 0.1429 0.2474 0.1218 (  3842 PWs)   bands (ev):

   -39.3022 -11.9125 -11.7334  -7.6551  -7.5722  -7.5144  -7.4169  -4.4757
    -4.4121  -4.3567  -4.3084  -1.4518  -1.3808  -1.3164  -1.2443  -0.7313
     0.5725   2.3484   2.3956   3.2203   3.2545   4.0197   4.0600   5.1486
     5.2289   8.5171   8.6551   9.5876   9.6006  11.0665  15.3388

          k = 0.1429 0.2474 0.2436 (  3844 PWs)   bands (ev):

   -39.3022 -11.8822 -11.7661  -7.6271  -7.5439  -7.5342  -7.4570  -4.4444
    -4.3965  -4.3893  -4.3249  -1.4438  -1.3887  -1.3012  -1.2599  -0.4286
     0.1889   2.3593   2.3851   3.2294   3.2467   4.3209   4.3792   4.7813
     4.8381   8.8161   8.8938   9.2265   9.3118  11.9629  14.3520

          k = 0.1429 0.4124 0.0000 (  3821 PWs)   bands (ev):

   -39.3021 -11.2898 -11.0870  -9.1074  -8.9202  -8.0619  -7.8783  -4.7687
    -4.6367  -2.9495  -2.8328  -0.2260  -0.1043  -0.0680   0.1886   0.2358
     0.6159   0.6923   1.4735   2.2656   2.3485   2.4151   3.3814   3.8782
     4.8301   8.7246  10.0575  10.3599  11.3023  11.4938  13.7284

          k = 0.1429 0.4124 0.1218 (  3828 PWs)   bands (ev):

   -39.3021 -11.2758 -11.1024  -9.0932  -8.9356  -8.0473  -7.8942  -4.7587
    -4.6473  -2.9402  -2.8427  -0.1956  -0.1102   0.0197   0.2003   0.2305
     0.6215   0.6861   1.3032   2.2896   2.3444   2.5154   3.4969   3.7135
     4.6677   8.8295   9.9060  10.4555  11.3621  11.6806  14.0417

          k = 0.1429 0.4124 0.2436 (  3844 PWs)   bands (ev):

   -39.3021 -11.2456 -11.1348  -9.0612  -8.9695  -8.0130  -7.9305  -4.7365
    -4.6707  -2.9186  -2.8651  -0.1667  -0.1234   0.1734   0.2177   0.3459
     0.6344   0.6692   0.9252   2.3115   2.3345   2.8155   3.3242   3.8151
     4.2823   9.1033   9.5651  10.7037  11.0697  12.5138  14.6865

          k = 0.1429 0.5774 0.0000 (  3820 PWs)   bands (ev):

   -39.3021 -10.3880 -10.2988 -10.2201 -10.0741  -8.2092  -8.0242  -4.8869
    -4.7545  -1.2399  -1.2070  -1.1375  -1.1121   0.7767   0.8898   0.9734
     1.0049   1.1503   1.1533   1.1663   1.1852   2.4246   2.6546   3.1946
     4.6495   8.7715  10.1363  11.9018  12.4886  12.4956  12.8537

          k = 0.1429 0.5774 0.1218 (  3821 PWs)   bands (ev):

   -39.3021 -10.3796 -10.2801 -10.2292 -10.0947  -8.1945  -8.0402  -4.8771
    -4.7651  -1.2310  -1.1998  -1.1467  -1.1199   0.8105   0.8843   1.0416
     1.0774   1.1579   1.1727   1.1906   1.1984   2.2853   2.4596   3.3133
     4.4866   8.8763   9.9836  12.2474  12.5690  12.5900  13.1900

          k = 0.1429 0.5774 0.2436 (  3828 PWs)   bands (ev):

   -39.3021 -10.3634 -10.2466 -10.2347 -10.1432  -8.1602  -8.0765  -4.8552
    -4.7880  -1.2098  -1.1838  -1.1685  -1.1368   0.8460   0.8704   1.1147
     1.1259   1.1430   1.1744   1.3815   1.4782   1.9841   2.0045   3.6294
     4.1003   9.1472   9.6399  12.7823  12.8128  12.9297  13.1277

          k = 0.2857 0.4949 0.0000 (  3811 PWs)   bands (ev):

   -39.3020 -10.5025 -10.3094  -9.4517  -9.3671  -9.2776  -9.1553  -3.1311
    -3.0709  -3.0024  -2.9640  -1.2441  -1.1451   0.7612   1.0296   1.0420
     1.0485   1.0974   1.7304   1.7976   2.0280   2.0325   2.3465   3.4605
     3.6202  10.4813  10.6822  11.7462  11.7941  12.0137  12.7098

          k = 0.2857 0.4949 0.1218 (  3823 PWs)   bands (ev):

   -39.3020 -10.4891 -10.3240  -9.4404  -9.3495  -9.2900  -9.1746  -3.1199
    -3.0641  -3.0143  -2.9713  -1.2361  -1.1536   0.8584   1.0361   1.0525
     1.0571   1.0936   1.7429   1.7932   2.0925   2.1486   2.2308   3.3057
     3.4359  10.5883  10.7622  11.6313  11.6413  12.3683  12.7899

          k = 0.2857 0.4949 0.2436 (  3823 PWs)   bands (ev):

   -39.3020 -10.4602 -10.3548  -9.4168  -9.3154  -9.3067  -9.2201  -3.0923
    -3.0501  -3.0429  -2.9863  -1.2178  -1.1727   0.9797   1.0202   1.0613
     1.0851   1.2535   1.7612   1.7823   1.7974   2.4226   2.4903   2.9640
     3.0002  10.8798  10.9570  11.2825  11.3936  12.9935  13.0911

     the Fermi energy is     8.1634 ev

!    total energy              =    -235.37588807 Ry
     estimated scf accuracy    <       0.00000089 Ry
     smearing contrib. (-TS)   =      -0.00104562 Ry
     internal energy E=F+TS    =    -235.37484245 Ry

     The total energy is F=E-TS. E is the sum of the following terms:
     one-electron contribution =     -38.53762276 Ry
     hartree contribution      =      44.46563663 Ry
     xc contribution           =     -59.62016127 Ry
     ewald contribution        =    -108.38216200 Ry
     one-center paw contrib.   =     -73.30053304 Ry

     convergence has been achieved in   7 iterations

     Forces acting on atoms (cartesian axes, Ry/au):

     atom    1 type  1   force =     0.00000000   -0.00000000    0.00000000
     atom    2 type  2   force =    -0.00059350   -0.00102797   -0.00089222
     atom    3 type  2   force =     0.00118700    0.00000000   -0.00089222
     atom    4 type  2   force =    -0.00059350    0.00102797   -0.00089222
     atom    5 type  2   force =     0.00059350    0.00102797   -0.00089222
     atom    6 type  2   force =    -0.00118700    0.00000000   -0.00089222
     atom    7 type  2   force =     0.00059350   -0.00102797   -0.00089222
     atom    8 type  2   force =     0.00059350    0.00102797    0.00089222
     atom    9 type  2   force =    -0.00118700    0.00000000    0.00089222
     atom   10 type  2   force =     0.00059350   -0.00102797    0.00089222
     atom   11 type  2   force =    -0.00059350   -0.00102797    0.00089222
     atom   12 type  2   force =     0.00118700   -0.00000000    0.00089222
     atom   13 type  2   force =    -0.00059350    0.00102797    0.00089222

     Total force =     0.005144     Total SCF correction =     0.003800
     SCF correction compared to forces is large: reduce conv_thr to get better values


     Computing stress (Cartesian axis) and pressure

          total   stress  (Ry/bohr**3)                   (kbar)     P=       25.58
   0.00028070   0.00000000  -0.00000000           41.29        0.00       -0.00
   0.00000000   0.00028070   0.00000000            0.00       41.29        0.00
   0.00000000  -0.00000000  -0.00003969            0.00       -0.00       -5.84


     BFGS Geometry Optimization
     Energy error            =      0.0E+00
     Gradient error          =      1.2E-03
     Cell gradient error     =      2.8E-04


     number of scf cycles    =   1
     number of bfgs steps    =   0

     enthalpy new            =    -235.3758880684 Ry

     new trust radius        =       0.0384875321 bohr
     new conv_thr            =       0.0000010000 Ry

     new unit-cell volume =    761.81625 a.u.^3 (   112.88952 Ang^3 )
     density =      2.22218 g/cm^3

CELL_PARAMETERS (angstrom)
   4.309165115   0.000000000   0.000000000
  -2.154582557   3.731846973  -0.000000000
  -0.000000000   0.000000000   7.019992798

ATOMIC_POSITIONS (angstrom)
Li            0.0000000000       -0.0000000000        0.0000000000
C             1.4364017307        2.4879204915        5.1629420667
C             1.4363626605        0.0000000000        5.1629420667
C             3.5909842881        1.2439264812        5.1629420667
C             0.7181808267        1.2439264812        5.1629420667
C             2.8728024544        0.0000000000        5.1629420667
C            -1.4364017307        2.4879204915        5.1629420667
C             0.7181808267        1.2439264812        1.8570517308
C             2.8728024544        0.0000000000        1.8570517308
C            -1.4364017307        2.4879204915        1.8570517308
C             1.4364017307        2.4879204915        1.8570517308
C             1.4363626605        0.0000000000        1.8570517308
C             3.5909842881        1.2439264812        1.8570517308



     Writing output data file ./LiC12.save/
     NEW-OLD atomic charge density approx. for the potential

     Check: negative core charge=   -0.000011
     extrapolated charge   51.65255, renormalised to   51.00000

     total cpu time spent up to now is      148.1 secs

     Self-consistent Calculation

     iteration #  1     ecut=    45.00 Ry     beta= 0.70
     Davidson diagonalization with overlap
     c_bands:  1 eigenvalues not converged
     c_bands:  1 eigenvalues not converged
     ethr =  1.00E-06,  avg # of iterations =  8.2

     total cpu time spent up to now is      159.6 secs

     total energy              =    -235.36689828 Ry
     estimated scf accuracy    <       0.00629522 Ry

     iteration #  2     ecut=    45.00 Ry     beta= 0.70
     Davidson diagonalization with overlap
     c_bands:  1 eigenvalues not converged
     ethr =  1.23E-05,  avg # of iterations =  5.9

     total cpu time spent up to now is      168.4 secs

     total energy              =    -235.37566227 Ry
     estimated scf accuracy    <       0.00737914 Ry

     iteration #  3     ecut=    45.00 Ry     beta= 0.70
     Davidson diagonalization with overlap
     ethr =  1.23E-05,  avg # of iterations =  2.4

     total cpu time spent up to now is      174.5 secs

     total energy              =    -235.37611848 Ry
     estimated scf accuracy    <       0.00117503 Ry

     iteration #  4     ecut=    45.00 Ry     beta= 0.70
     Davidson diagonalization with overlap
     c_bands:  1 eigenvalues not converged
     c_bands:  1 eigenvalues not converged
     ethr =  2.30E-06,  avg # of iterations =  4.5

     total cpu time spent up to now is      180.7 secs

     total energy              =    -235.37582015 Ry
     estimated scf accuracy    <       0.00061193 Ry

     iteration #  5     ecut=    45.00 Ry     beta= 0.70
     Davidson diagonalization with overlap
     c_bands:  1 eigenvalues not converged
     ethr =  1.20E-06,  avg # of iterations =  3.0

     total cpu time spent up to now is      187.5 secs

     total energy              =    -235.37591086 Ry
     estimated scf accuracy    <       0.00001038 Ry

     iteration #  6     ecut=    45.00 Ry     beta= 0.70
     Davidson diagonalization with overlap
     ethr =  2.04E-08,  avg # of iterations =  5.0

     total cpu time spent up to now is      195.9 secs

     total energy              =    -235.37591643 Ry
     estimated scf accuracy    <       0.00000477 Ry

     iteration #  7     ecut=    45.00 Ry     beta= 0.70
     Davidson diagonalization with overlap
     ethr =  9.35E-09,  avg # of iterations =  2.1

     total cpu time spent up to now is      203.2 secs

     End of self-consistent calculation

          k = 0.0000 0.0000 0.0000 (  3827 PWs)   bands (ev):

   -39.4035 -12.3955 -12.1775  -5.6526  -5.6525  -5.4924  -5.4924  -5.4784
    -5.4784  -5.3343  -5.3342  -3.4952  -3.4472  -3.3523  -3.2396  -1.4511
     0.1885   3.9417   3.9417   3.9728   3.9728   5.9223   5.9223   6.3225
     6.3225   7.3447   7.3447   7.5314   7.5314  10.1298  15.0687

          k =-0.0000 0.0000 0.1219 (  3844 PWs)   bands (ev):

   -39.4035 -12.3810 -12.1936  -5.6371  -5.6371  -5.4951  -5.4951  -5.4799
    -5.4798  -5.3477  -5.3477  -3.5084  -3.4345  -3.3434  -3.2488  -1.3290
     0.0140   3.9441   3.9441   3.9705   3.9705   6.0387   6.0387   6.4197
     6.4197   7.1831   7.1831   7.4050   7.4050  10.5187  15.1625

          k =-0.0000 0.0000 0.2438 (  3838 PWs)   bands (ev):

   -39.4035 -12.3498 -12.2274  -5.5976  -5.5976  -5.5365  -5.5365  -5.4508
    -5.4507  -5.3782  -5.3782  -3.5234  -3.4203  -3.3232  -3.2695  -1.0225
    -0.3742   3.9494   3.9494   3.9653   3.9653   6.3582   6.3582   6.6707
     6.6707   6.7928   6.7929   7.1078   7.1079  11.4529  13.7583

          k =-0.0000 0.1638-0.0000 (  3853 PWs)   bands (ev):

   -39.4035 -12.2370 -12.0203  -6.9898  -6.8144  -6.3963  -6.2150  -5.4273
    -5.2875  -4.4853  -4.3377  -2.7792  -2.7019  -2.4339  -2.3380  -1.2617
     0.3725   3.3202   3.3620   3.5990   3.6356   4.5955   4.9583   6.0030
     6.3333   7.1681   7.6397   8.4720   8.8730  10.2963  15.1376

          k =-0.0000 0.1638 0.1219 (  3847 PWs)   bands (ev):

   -39.4035 -12.2224 -12.0364  -6.9755  -6.8297  -6.3808  -6.2318  -5.4170
    -5.2985  -4.4728  -4.3510  -2.7784  -2.7035  -2.4273  -2.3450  -1.1396
     0.1979   3.3236   3.3586   3.6022   3.6327   4.7100   5.0715   5.8449
     6.1793   7.2749   7.7428   8.3272   8.7373  10.6843  15.1745

          k =-0.0000 0.1638 0.2438 (  3833 PWs)   bands (ev):

   -39.4035 -12.1911 -12.0702  -6.9418  -6.8652  -6.3424  -6.2721  -5.3941
    -5.3225  -4.4426  -4.3824  -2.7771  -2.7057  -2.4133  -2.3597  -0.8322
    -0.1912   3.3313   3.3509   3.6092   3.6263   5.0200   5.3795   5.4674
     5.8078   7.5588   7.9841   8.0185   8.4098  11.6092  13.9479

          k =-0.0000 0.3276-0.0000 (  3853 PWs)   bands (ev):

   -39.4034 -11.7629 -11.5505  -8.5426  -8.3555  -6.9446  -6.7531  -5.8395
    -5.7081  -3.1541  -3.0264  -1.5481  -1.4654  -0.7911  -0.6826  -0.6647
     0.9186   1.8543   1.9168   2.6506   2.7105   2.9769   4.1889   4.4551
     5.5889   7.6044   8.9943   9.4482  10.5881  10.7757  14.2292

          k =-0.0000 0.3276 0.1219 (  3832 PWs)   bands (ev):

   -39.4034 -11.7484 -11.5665  -8.5281  -8.3712  -6.9282  -6.7709  -5.8312
    -5.7169  -3.1433  -3.0377  -1.5435  -1.4704  -0.7675  -0.6886  -0.5612
     0.7441   1.8595   1.9115   2.6598   2.7066   3.0910   4.2886   4.3042
     5.4329   7.7128   8.8384   9.5437  10.4632  11.1584  14.5180

          k =-0.0000 0.3276 0.2438 (  3831 PWs)   bands (ev):

   -39.4034 -11.7170 -11.6003  -8.4951  -8.4062  -6.8877  -6.8137  -5.8142
    -5.7349  -3.1173  -3.0645  -1.5345  -1.4800  -0.7452  -0.7018  -0.2625
     0.3537   1.8717   1.8994   2.6743   2.6976   3.4013   3.8994   4.6173
     5.0557   7.9946   8.4847   9.7999  10.1604  12.0467  14.4549

          k =-0.0000 0.4914-0.0000 (  3841 PWs)   bands (ev):

   -39.4034 -10.9796 -10.7758  -9.8949  -9.6945  -7.2199  -7.0231  -6.0935
    -5.9636  -1.6012  -1.4947  -0.1381  -0.0487   0.1127   0.1972   0.2127
     0.4708   0.5105   1.3141   1.4083   1.4990   1.8024   3.0218   3.7994
     5.2130   7.7163   9.1716  11.4765  11.5027  12.5115  12.9927

          k =-0.0000 0.4914 0.1219 (  3831 PWs)   bands (ev):

   -39.4034 -10.9655 -10.7913  -9.8798  -9.7109  -7.2031  -7.0414  -6.0859
    -5.9717  -1.5922  -1.5041  -0.1279  -0.0550   0.1198   0.1900   0.3199
     0.4849   0.5056   1.3300   1.4033   1.5744   1.6668   2.8476   3.9158
     5.0556   7.8250   9.0093  11.5882  11.8407  12.4015  13.3376

          k =-0.0000 0.4914 0.2438 (  3839 PWs)   bands (ev):

   -39.4034 -10.9348 -10.8242  -9.8461  -9.7471  -7.1614  -7.0855  -6.0707
    -5.9878  -1.5709  -1.5260  -0.1108  -0.0685   0.1365   0.1729   0.4581
     0.4923   0.6630   1.2209   1.3642   1.4076   1.9103   2.4519   4.2319
     4.6752   8.1021   8.6508  11.8167  12.1351  12.6362  13.9319

          k = 0.1419 0.2457 0.0000 (  3827 PWs)   bands (ev):

   -39.4034 -11.9206 -11.7067  -7.7172  -7.6451  -7.5454  -7.4526  -4.5607
    -4.4998  -4.4115  -4.3767  -1.5227  -1.4416  -1.3919  -1.3031  -0.8812
     0.7376   2.1969   2.2560   3.0739   3.1172   3.7935   3.8266   5.2099
     5.2930   8.2202   8.3683   9.5488   9.5605  10.6206  14.9537

          k = 0.1419 0.2457 0.1219 (  3842 PWs)   bands (ev):

   -39.4034 -11.9060 -11.7228  -7.7042  -7.6291  -7.5594  -7.4700  -4.5477
    -4.4920  -4.4253  -4.3851  -1.5184  -1.4458  -1.3850  -1.3103  -0.7602
     0.5631   2.2019   2.2511   3.0782   3.1138   3.9080   3.9451   5.0523
     5.1278   8.3308   8.4624   9.4100   9.4198  11.0063  15.0928

          k = 0.1419 0.2457 0.2438 (  3844 PWs)   bands (ev):

   -39.4034 -11.8747 -11.7566  -7.6752  -7.5903  -7.5901  -7.5110  -4.5157
    -4.4759  -4.4586  -4.4022  -1.5106  -1.4537  -1.3692  -1.3264  -0.4529
     0.1727   2.2132   2.2402   3.0876   3.1057   4.2127   4.2672   4.6802
     4.7328   8.6317   8.7034   9.0464   9.1275  11.9084  14.2960

          k = 0.1419 0.4095-0.0000 (  3821 PWs)   bands (ev):

   -39.4034 -11.2916 -11.0838  -9.1378  -8.9458  -8.1101  -7.9217  -4.8325
    -4.6970  -3.0439  -2.9234  -0.3003  -0.1883  -0.1251   0.0999   0.1475
     0.4856   0.5648   1.4538   2.1490   2.2255   2.3210   3.2758   3.8121
     4.7427   8.5389   9.8816  10.1354  11.2310  11.2792  13.6171

          k = 0.1419 0.4095 0.1219 (  3828 PWs)   bands (ev):

   -39.4034 -11.2772 -11.0996  -9.1233  -8.9616  -8.0951  -7.9380  -4.8224
    -4.7079  -3.0343  -2.9336  -0.2770  -0.1944  -0.0324   0.1155   0.1420
     0.4915   0.5585   1.2802   2.1677   2.2212   2.4281   3.3929   3.6446
     4.5782   8.6445   9.7294  10.2317  11.1492  11.6089  13.9320

          k = 0.1419 0.4095 0.2438 (  3844 PWs)   bands (ev):

   -39.4034 -11.2460 -11.1332  -9.0904  -8.9966  -8.0599  -7.9753  -4.7997
    -4.7317  -3.0121  -2.9568  -0.2515  -0.2078   0.0879   0.1288   0.3029
     0.5053   0.5426   0.8941   2.1876   2.2111   2.7340   3.2506   3.7140
     4.1883   8.9198   9.3866  10.4812  10.8525  12.4495  14.5696

          k = 0.1419 0.5733-0.0000 (  3820 PWs)   bands (ev):

   -39.4034 -10.3976 -10.3170 -10.2243 -10.0879  -8.2554  -8.0657  -4.9477
    -4.8119  -1.3460  -1.3257  -1.2402  -1.2274   0.6859   0.7928   0.8956
     0.9367   1.0482   1.0611   1.0699   1.0769   2.3893   2.6100   3.0922
     4.5654   8.5883   9.9627  11.8241  12.2267  12.2329  12.7473

          k = 0.1419 0.5733 0.1219 (  3821 PWs)   bands (ev):

   -39.4034 -10.3887 -10.2980 -10.2340 -10.1088  -8.2404  -8.0821  -4.9377
    -4.8226  -1.3369  -1.3182  -1.2496  -1.2354   0.7148   0.7871   0.9589
     0.9911   1.0618   1.0701   1.1030   1.1171   2.2466   2.4127   3.2122
     4.4003   8.6937   9.8092  12.1711  12.3082  12.3224  13.0890

          k = 0.1419 0.5733 0.2438 (  3828 PWs)   bands (ev):

   -39.4034 -10.3713 -10.2527 -10.2519 -10.1581  -8.2052  -8.1194  -4.9154
    -4.8460  -1.3151  -1.3015  -1.2721  -1.2529   0.7478   0.7727   1.0185
     1.0198   1.0466   1.0658   1.3252   1.4171   1.9378   1.9526   3.5314
     4.0095   8.9663   9.4637  12.5237  12.5440  12.7786  12.8631

          k = 0.2837 0.4914 0.0000 (  3811 PWs)   bands (ev):

   -39.4033 -10.5140 -10.3156  -9.4749  -9.3978  -9.2960  -9.1816  -3.2135
    -3.1625  -3.0809  -3.0525  -1.3534  -1.2511   0.6945   0.9330   0.9392
     0.9487   0.9999   1.6188   1.6856   1.9445   1.9544   2.3109   3.4036
     3.5566  10.2637  10.4546  11.5295  11.5816  11.9304  12.4440

          k = 0.2837 0.4914 0.1219 (  3823 PWs)   bands (ev):

   -39.4033 -10.5001 -10.3307  -9.4632  -9.3799  -9.3089  -9.2013  -3.2020
    -3.1556  -3.0931  -3.0600  -1.3452  -1.2598   0.7836   0.9331   0.9529
     0.9703   0.9959   1.6303   1.6810   2.0275   2.0674   2.1804   3.2463
     3.3701  10.3712  10.5354  11.4150  11.4290  12.2820  12.5274

          k = 0.2837 0.4914 0.2438 (  3823 PWs)   bands (ev):

   -39.4033 -10.4700 -10.3627  -9.4387  -9.3364  -9.3353  -9.2475  -3.1736
    -3.1413  -3.1225  -3.0753  -1.3262  -1.2795   0.8797   0.9171   0.9621
     0.9869   1.1967   1.6481   1.6699   1.7518   2.3502   2.4129   2.8988
     2.9301  10.6638  10.7324  11.0695  11.1736  12.7277  12.9625

     the Fermi energy is     7.9949 ev

!    total energy              =    -235.37591755 Ry
     estimated scf accuracy    <       0.00000042 Ry
     smearing contrib. (-TS)   =      -0.00105102 Ry
     internal energy E=F+TS    =    -235.37486653 Ry

     The total energy is F=E-TS. E is the sum of the following terms:
     one-electron contribution =     -37.78261580 Ry
     hartree contribution      =      43.82839193 Ry
     xc contribution           =     -59.43391008 Ry
     ewald contribution        =    -108.69435781 Ry
     one-center paw contrib.   =     -73.29237477 Ry

     convergence has been achieved in   7 iterations

     Forces acting on atoms (cartesian axes, Ry/au):

     atom    1 type  1   force =    -0.00000000    0.00000000    0.00000000
     atom    2 type  2   force =     0.00049024    0.00084913   -0.00083278
     atom    3 type  2   force =    -0.00098049   -0.00000000   -0.00083278
     atom    4 type  2   force =     0.00049024   -0.00084913   -0.00083278
     atom    5 type  2   force =    -0.00049024   -0.00084913   -0.00083278
     atom    6 type  2   force =     0.00098049   -0.00000000   -0.00083278
     atom    7 type  2   force =    -0.00049024    0.00084913   -0.00083278
     atom    8 type  2   force =    -0.00049024   -0.00084913    0.00083278
     atom    9 type  2   force =     0.00098049   -0.00000000    0.00083278
     atom   10 type  2   force =    -0.00049024    0.00084913    0.00083278
     atom   11 type  2   force =     0.00049024    0.00084913    0.00083278
     atom   12 type  2   force =    -0.00098049    0.00000000    0.00083278
     atom   13 type  2   force =     0.00049024   -0.00084913    0.00083278

     Total force =     0.004456     Total SCF correction =     0.000199


     Computing stress (Cartesian axis) and pressure

          total   stress  (Ry/bohr**3)                   (kbar)     P=      -28.00
  -0.00027410   0.00000000   0.00000000          -40.32        0.00        0.00
   0.00000000  -0.00027410   0.00000000            0.00      -40.32        0.00
   0.00000000   0.00000000  -0.00002278            0.00        0.00       -3.35

     Energy error            =      2.9E-05
     Gradient error          =      9.8E-04
     Cell gradient error     =      2.7E-04


     number of scf cycles    =   2
     number of bfgs steps    =   1

     enthalpy old            =    -235.3758880684 Ry
     enthalpy new            =    -235.3759175489 Ry

     CASE: enthalpy_new > enthalpy_old

     new trust radius        =       0.0194239134 bohr
     new conv_thr            =       0.0000010000 Ry

     new unit-cell volume =    756.94084 a.u.^3 (   112.16706 Ang^3 )
     density =      2.23649 g/cm^3

CELL_PARAMETERS (angstrom)
   4.294298638   0.000000000   0.000000000
  -2.147149319   3.718972228  -0.000000000
  -0.000000000   0.000000000   7.023444518

ATOMIC_POSITIONS (angstrom)
Li            0.0000000000       -0.0000000000        0.0000000000
C             1.4316022282        2.4796075125        5.1657143017
C             1.4310951851        0.0000000000        5.1657143017
C             3.5787515471        1.2393647152        5.1657143017
C             0.7155470908        1.2393647152        5.1657143017
C             2.8632034528        0.0000000000        5.1657143017
C            -1.4316022282        2.4796075125        5.1657143017
C             0.7155470908        1.2393647152        1.8577312155
C             2.8632034528        0.0000000000        1.8577312155
C            -1.4316022282        2.4796075125        1.8577312155
C             1.4316022282        2.4796075125        1.8577312155
C             1.4310951851        0.0000000000        1.8577312155
C             3.5787515471        1.2393647152        1.8577312155



     Writing output data file ./LiC12.save/
     NEW-OLD atomic charge density approx. for the potential

     Check: negative core charge=   -0.000011
     extrapolated charge   50.67442, renormalised to   51.00000

     total cpu time spent up to now is      214.9 secs

     Self-consistent Calculation

     iteration #  1     ecut=    45.00 Ry     beta= 0.70
     Davidson diagonalization with overlap
     ethr =  1.00E-06,  avg # of iterations =  5.6

     total cpu time spent up to now is      224.5 secs

     total energy              =    -235.37450793 Ry
     estimated scf accuracy    <       0.00148624 Ry

     iteration #  2     ecut=    45.00 Ry     beta= 0.70
     Davidson diagonalization with overlap
     c_bands:  1 eigenvalues not converged
     c_bands:  1 eigenvalues not converged
     ethr =  2.91E-06,  avg # of iterations =  6.5

     total cpu time spent up to now is      233.3 secs

     total energy              =    -235.37656790 Ry
     estimated scf accuracy    <       0.00176990 Ry

     iteration #  3     ecut=    45.00 Ry     beta= 0.70
     Davidson diagonalization with overlap
     ethr =  2.91E-06,  avg # of iterations =  3.0

     total cpu time spent up to now is      239.4 secs

     total energy              =    -235.37668276 Ry
     estimated scf accuracy    <       0.00027887 Ry

     iteration #  4     ecut=    45.00 Ry     beta= 0.70
     Davidson diagonalization with overlap
     ethr =  5.47E-07,  avg # of iterations =  2.0

     total cpu time spent up to now is      245.3 secs

     total energy              =    -235.37661780 Ry
     estimated scf accuracy    <       0.00014329 Ry

     iteration #  5     ecut=    45.00 Ry     beta= 0.70
     Davidson diagonalization with overlap
     ethr =  2.81E-07,  avg # of iterations =  2.2

     total cpu time spent up to now is      251.6 secs

     total energy              =    -235.37663579 Ry
     estimated scf accuracy    <       0.00000472 Ry

     iteration #  6     ecut=    45.00 Ry     beta= 0.70
     Davidson diagonalization with overlap
     ethr =  9.26E-09,  avg # of iterations =  4.7

     total cpu time spent up to now is      260.0 secs

     End of self-consistent calculation

          k = 0.0000 0.0000 0.0000 (  3827 PWs)   bands (ev):

   -39.3484 -12.4029 -12.1874  -5.6120  -5.6120  -5.4450  -5.4450  -5.4400
    -5.4400  -5.2889  -5.2888  -3.4959  -3.4493  -3.3511  -3.2403  -1.4415
     0.1858   4.0188   4.0188   4.0491   4.0492   5.9949   5.9950   6.4036
     6.4036   7.4085   7.4085   7.6046   7.6046  10.1575  15.2104

          k =-0.0000 0.0000 0.1219 (  3844 PWs)   bands (ev):

   -39.3484 -12.3886 -12.2032  -5.5967  -5.5967  -5.4565  -5.4565  -5.4326
    -5.4326  -5.3021  -5.3021  -3.5092  -3.4365  -3.3423  -3.2493  -1.3203
     0.0129   4.0211   4.0212   4.0468   4.0469   6.1106   6.1106   6.5002
     6.5002   7.2480   7.2481   7.4790   7.4791  10.5450  15.1929

          k =-0.0000 0.0000 0.2437 (  3838 PWs)   bands (ev):

   -39.3484 -12.3579 -12.2364  -5.5576  -5.5576  -5.4974  -5.4974  -5.4038
    -5.4038  -5.3323  -5.3322  -3.5243  -3.4223  -3.3225  -3.2697  -1.0163
    -0.3717   4.0263   4.0263   4.0418   4.0418   6.4282   6.4282   6.7500
     6.7500   6.8605   6.8605   7.1836   7.1836  11.4766  13.7799

          k =-0.0000 0.1644-0.0000 (  3853 PWs)   bands (ev):

   -39.3483 -12.2434 -12.0292  -6.9600  -6.7870  -6.3553  -6.1760  -5.4006
    -5.2631  -4.4374  -4.2919  -2.7671  -2.6909  -2.4123  -2.3178  -1.2506
     0.3714   3.3953   3.4362   3.6724   3.7082   4.6580   5.0250   6.0567
     6.3913   7.2520   7.7299   8.5486   8.9555  10.3254  15.2745

          k =-0.0000 0.1644 0.1219 (  3847 PWs)   bands (ev):

   -39.3483 -12.2290 -12.0450  -6.9459  -6.8021  -6.3399  -6.1926  -5.3904
    -5.2739  -4.4251  -4.3050  -2.7662  -2.6924  -2.4058  -2.3248  -1.1294
     0.1984   3.3986   3.4329   3.6756   3.7054   4.7719   5.1376   5.8997
     6.2384   7.3582   7.8324   8.4047   8.8207  10.7121  15.3165

          k =-0.0000 0.1644 0.2437 (  3833 PWs)   bands (ev):

   -39.3483 -12.1983 -12.0783  -6.9127  -6.8370  -6.3019  -6.2325  -5.3681
    -5.2973  -4.3953  -4.3360  -2.7649  -2.6947  -2.3920  -2.3392  -0.8244
    -0.1871   3.4062   3.4253   3.6824   3.6991   5.0802   5.4440   5.5244
     5.8691   7.6408   8.0633   8.1067   8.4951  11.6344  13.9707

          k =-0.0000 0.3287-0.0000 (  3853 PWs)   bands (ev):

   -39.3483 -11.7664 -11.5565  -8.5250  -8.3404  -6.9052  -6.7158  -5.8247
    -5.6955  -3.1018  -2.9760  -1.5229  -1.4414  -0.7603  -0.6461  -0.6419
     0.9224   1.9244   1.9855   2.7135   2.7734   3.0253   4.2495   4.4930
     5.6403   7.6868   9.0710   9.5543  10.6876  10.8082  14.2911

          k =-0.0000 0.3287 0.1219 (  3832 PWs)   bands (ev):

   -39.3483 -11.7521 -11.5722  -8.5108  -8.3558  -6.8889  -6.7334  -5.8166
    -5.7041  -3.0911  -2.9872  -1.5183  -1.4463  -0.7319  -0.6520  -0.5441
     0.7496   1.9295   1.9804   2.7231   2.7696   3.1383   4.3276   4.3641
     5.4854   7.7948   8.9156   9.6492  10.5635  11.1898  14.5783

          k =-0.0000 0.3287 0.2437 (  3831 PWs)   bands (ev):

   -39.3483 -11.7213 -11.6055  -8.4782  -8.3903  -6.8488  -6.7757  -5.7999
    -5.7217  -3.0656  -3.0137  -1.5094  -1.4558  -0.7081  -0.6650  -0.2495
     0.3626   1.9415   1.9685   2.7377   2.7607   3.4465   3.9409   4.6756
     5.1106   8.0755   8.5634   9.9043  10.2622  12.0758  14.4839

          k =-0.0000 0.4931-0.0000 (  3841 PWs)   bands (ev):

   -39.3482 -10.9784 -10.7771  -9.8864  -9.6884  -7.1813  -6.9865  -6.0829
    -5.9552  -1.5435  -1.4389  -0.1006  -0.0117   0.1766   0.2381   0.2595
     0.5142   0.5538   1.3613   1.4585   1.5371   1.8143   3.0457   3.8568
     5.2611   7.7964   9.2464  11.5133  11.6277  12.6314  13.0443

          k =-0.0000 0.4931 0.1219 (  3831 PWs)   bands (ev):

   -39.3482 -10.9645 -10.7923  -9.8715  -9.7046  -7.1646  -7.0047  -6.0755
    -5.9631  -1.5346  -1.4480  -0.0902  -0.0179   0.1835   0.2523   0.3459
     0.5265   0.5490   1.3784   1.4534   1.6030   1.6880   2.8728   3.9726
     5.1048   7.9047   9.0846  11.7129  11.8764  12.5220  13.3887

          k =-0.0000 0.4931 0.2437 (  3839 PWs)   bands (ev):

   -39.3482 -10.9343 -10.8246  -9.8382  -9.7402  -7.1233  -7.0483  -6.0606
    -5.9788  -1.5137  -1.4696  -0.0730  -0.0313   0.1999   0.2356   0.5005
     0.5358   0.6854   1.2405   1.4141   1.4561   1.9422   2.4798   4.2870
     4.7269   8.1807   8.7275  11.9406  12.2568  12.6694  14.0777

          k = 0.1424 0.2466 0.0000 (  3827 PWs)   bands (ev):

   -39.3483 -11.9250 -11.7137  -7.6942  -7.6185  -7.5251  -7.4282  -4.5267
    -4.4619  -4.3796  -4.3407  -1.4917  -1.4114  -1.3599  -1.2726  -0.8668
     0.7398   2.2673   2.3251   3.1419   3.1844   3.8485   3.8831   5.2552
     5.3407   8.3117   8.4628   9.6363   9.6462  10.6522  15.0218

          k = 0.1424 0.2466 0.1219 (  3842 PWs)   bands (ev):

   -39.3483 -11.9107 -11.7295  -7.6815  -7.6026  -7.5388  -7.4454  -4.5139
    -4.4543  -4.3932  -4.3490  -1.4874  -1.4157  -1.3531  -1.2797  -0.7467
     0.5669   2.2722   2.3204   3.1462   3.1810   3.9622   4.0009   5.0987
     5.1766   8.4218   8.5565   9.4964   9.5078  11.0369  15.2323

          k = 0.1424 0.2466 0.2437 (  3844 PWs)   bands (ev):

   -39.3483 -11.8799 -11.7628  -7.6531  -7.5689  -7.5642  -7.4860  -4.4823
    -4.4384  -4.4261  -4.3657  -1.4795  -1.4235  -1.3376  -1.2955  -0.4418
     0.1801   2.2832   2.3096   3.1554   3.1731   4.2651   4.3215   4.7291
     4.7838   8.7216   8.7962   9.1342   9.2174  11.9365  14.3227

          k = 0.1424 0.4109-0.0000 (  3821 PWs)   bands (ev):

   -39.3482 -11.2922 -11.0869  -9.1243  -8.9347  -8.0879  -7.9019  -4.8027
    -4.6690  -2.9991  -2.8805  -0.2646  -0.1488  -0.0985   0.1416   0.1891
     0.5479   0.6257   1.4625   2.2052   2.2841   2.3660   3.3271   3.8437
     4.7847   8.6297   9.9673  10.2451  11.2671  11.3837  13.6730

          k = 0.1424 0.4109 0.1219 (  3828 PWs)   bands (ev):

   -39.3482 -11.2780 -11.1025  -9.1100  -8.9503  -8.0730  -7.9180  -4.7927
    -4.6797  -2.9896  -2.8905  -0.2384  -0.1548  -0.0075   0.1551   0.1837
     0.5537   0.6195   1.2906   2.2260   2.2799   2.4701   3.4434   3.6776
     4.6213   8.7349   9.8155  10.3411  11.2533  11.6449  13.9872

          k = 0.1424 0.4109 0.2437 (  3844 PWs)   bands (ev):

   -39.3482 -11.2473 -11.1355  -9.0775  -8.9848  -8.0383  -7.9548  -4.7702
    -4.7033  -2.9677  -2.9133  -0.2116  -0.1681   0.1285   0.1707   0.3228
     0.5671   0.6032   0.9086   2.2466   2.2699   2.7732   3.2861   3.7629
     4.2338   9.0093   9.4738  10.5898  10.9586  12.4825  14.6334

          k = 0.1424 0.5753-0.0000 (  3820 PWs)   bands (ev):

   -39.3482 -10.3944 -10.3096 -10.2238 -10.0826  -8.2342  -8.0468  -4.9194
    -4.7853  -1.2955  -1.2689  -1.1914  -1.1724   0.7294   0.8387   0.9327
     0.9701   1.0961   1.1045   1.1155   1.1283   2.4058   2.6309   3.1420
     4.6057   8.6779  10.0473  11.8635  12.3547  12.3622  12.7998

          k = 0.1424 0.5753 0.1219 (  3821 PWs)   bands (ev):

   -39.3482 -10.3857 -10.2907 -10.2332 -10.1034  -8.2193  -8.0630  -4.9095
    -4.7960  -1.2865  -1.2616  -1.2007  -1.1802   0.7603   0.8331   0.9986
     1.0338   1.1072   1.1197   1.1423   1.1552   2.2648   2.4349   3.2613
     4.4418   8.7829   9.8942  12.2101  12.4354  12.4534  13.1379

          k = 0.1424 0.5753 0.2437 (  3828 PWs)   bands (ev):

   -39.3482 -10.3690 -10.2512 -10.2449 -10.1523  -8.1846  -8.0998  -4.8875
    -4.8191  -1.2650  -1.2453  -1.2229  -1.1974   0.7943   0.8189   1.0640
     1.0704   1.0922   1.1174   1.3519   1.4462   1.9599   1.9774   3.5788
     4.0534   9.0546   9.5498  12.6504  12.6753  12.8617  12.9925

          k = 0.2847 0.4931 0.0000 (  3811 PWs)   bands (ev):

   -39.3482 -10.5098 -10.3141  -9.4650  -9.3842  -9.2885  -9.1702  -3.1746
    -3.1190  -3.0440  -3.0106  -1.3013  -1.2007   0.7269   0.9785   0.9879
     0.9959   1.0460   1.6720   1.7388   1.9848   1.9922   2.3275   3.4307
     3.5869  10.3702  10.5659  11.6352  11.6852  11.9726  12.5739

          k = 0.2847 0.4931 0.1219 (  3823 PWs)   bands (ev):

   -39.3482 -10.4962 -10.3289  -9.4535  -9.3664  -9.3011  -9.1897  -3.1633
    -3.1122  -3.0560  -3.0180  -1.2932  -1.2093   0.8200   0.9819   1.0000
     1.0108   1.0421   1.6839   1.7343   2.0593   2.1066   2.2039   3.2746
     3.4015  10.4773  10.6462  11.5207  11.5326  12.3261  12.6552

          k = 0.2847 0.4931 0.2437 (  3823 PWs)   bands (ev):

   -39.3482 -10.4667 -10.3603  -9.4294  -9.3270  -9.3233  -9.2355  -3.1353
    -3.0981  -3.0850  -3.0331  -1.2746  -1.2287   0.9273   0.9660   1.0091
     1.0334   1.2235   1.7018   1.7233   1.7736   2.3850   2.4502   2.9302
     2.9638  10.7693  10.8421  11.1736  11.2812  12.8576  13.0332

     the Fermi energy is     8.0770 ev

!    total energy              =    -235.37663795 Ry
     estimated scf accuracy    <       0.00000096 Ry
     smearing contrib. (-TS)   =      -0.00104879 Ry
     internal energy E=F+TS    =    -235.37558917 Ry

     The total energy is F=E-TS. E is the sum of the following terms:
     one-electron contribution =     -38.15544622 Ry
     hartree contribution      =      44.14496564 Ry
     xc contribution           =     -59.52650798 Ry
     ewald contribution        =    -108.54217128 Ry
     one-center paw contrib.   =     -73.29642932 Ry

     convergence has been achieved in   6 iterations

     Forces acting on atoms (cartesian axes, Ry/au):

     atom    1 type  1   force =     0.00000000    0.00000000    0.00000000
     atom    2 type  2   force =    -0.00003028   -0.00005244   -0.00089684
     atom    3 type  2   force =     0.00006055   -0.00000000   -0.00089684
     atom    4 type  2   force =    -0.00003028    0.00005244   -0.00089684
     atom    5 type  2   force =     0.00003028    0.00005244   -0.00089684
     atom    6 type  2   force =    -0.00006055   -0.00000000   -0.00089684
     atom    7 type  2   force =     0.00003028   -0.00005244   -0.00089684
     atom    8 type  2   force =     0.00003028    0.00005244    0.00089684
     atom    9 type  2   force =    -0.00006055    0.00000000    0.00089684
     atom   10 type  2   force =     0.00003028   -0.00005244    0.00089684
     atom   11 type  2   force =    -0.00003028   -0.00005244    0.00089684
     atom   12 type  2   force =     0.00006055    0.00000000    0.00089684
     atom   13 type  2   force =    -0.00003028    0.00005244    0.00089684

     Total force =     0.003114     Total SCF correction =     0.001893
     SCF correction compared to forces is large: reduce conv_thr to get better values


     Computing stress (Cartesian axis) and pressure

          total   stress  (Ry/bohr**3)                   (kbar)     P=       -1.85
  -0.00000603   0.00000000   0.00000000           -0.89        0.00        0.00
   0.00000000  -0.00000603  -0.00000000            0.00       -0.89       -0.00
   0.00000000   0.00000000  -0.00002562            0.00        0.00       -3.77

     Energy error            =      7.5E-04
     Gradient error          =      9.0E-04
     Cell gradient error     =      2.6E-05


     number of scf cycles    =   3
     number of bfgs steps    =   1

     enthalpy old            =    -235.3758880684 Ry
     enthalpy new            =    -235.3766379541 Ry

     CASE: enthalpy_new < enthalpy_old

     new trust radius        =       0.0035833428 bohr
     new conv_thr            =       0.0000000100 Ry

     new unit-cell volume =    756.36058 a.u.^3 (   112.08107 Ang^3 )
     density =      2.23821 g/cm^3

CELL_PARAMETERS (angstrom)
   4.294050783   0.000000000   0.000000000
  -2.147025391   3.718757579   0.000000000
  -0.000000000   0.000000000   7.018870714

ATOMIC_POSITIONS (angstrom)
Li            0.0000000000       -0.0000000000        0.0000000000
C             1.4314995366        2.4794296455        5.1618756261
C             1.4310527129        0.0000000000        5.1618756261
C             3.5785249279        1.2393279333        5.1618756261
C             0.7155258547        1.2393279333        5.1618756261
C             2.8629980697        0.0000000000        5.1618756261
C            -1.4314995366        2.4794296455        5.1618756261
C             0.7155258547        1.2393279333        1.8569960864
C             2.8629980697        0.0000000000        1.8569960864
C            -1.4314995366        2.4794296455        1.8569960864
C             1.4314995366        2.4794296455        1.8569960864
C             1.4310527129        0.0000000000        1.8569960864
C             3.5785249279        1.2393279333        1.8569960864



     Writing output data file ./LiC12.save/
     NEW-OLD atomic charge density approx. for the potential

     Check: negative core charge=   -0.000011
     extrapolated charge   50.96122, renormalised to   51.00000

     total cpu time spent up to now is      271.9 secs

     Self-consistent Calculation

     iteration #  1     ecut=    45.00 Ry     beta= 0.70
     Davidson diagonalization with overlap
     ethr =  1.00E-06,  avg # of iterations =  2.4

     Threshold (ethr) on eigenvalues was too large:
     Diagonalizing with lowered threshold

     Davidson diagonalization with overlap
     ethr =  1.83E-08,  avg # of iterations =  2.0

     total cpu time spent up to now is      284.5 secs

     total energy              =    -235.37664155 Ry
     estimated scf accuracy    <       0.00000983 Ry

     iteration #  2     ecut=    45.00 Ry     beta= 0.70
     Davidson diagonalization with overlap
     ethr =  1.93E-08,  avg # of iterations =  3.3

     total cpu time spent up to now is      293.3 secs

     total energy              =    -235.37666440 Ry
     estimated scf accuracy    <       0.00002242 Ry

     iteration #  3     ecut=    45.00 Ry     beta= 0.70
     Davidson diagonalization with overlap
     ethr =  1.93E-08,  avg # of iterations =  2.0

     total cpu time spent up to now is      299.4 secs

     total energy              =    -235.37666490 Ry
     estimated scf accuracy    <       0.00000514 Ry

     iteration #  4     ecut=    45.00 Ry     beta= 0.70
     Davidson diagonalization with overlap
     ethr =  1.01E-08,  avg # of iterations =  1.0

     total cpu time spent up to now is      304.7 secs

     total energy              =    -235.37666299 Ry
     estimated scf accuracy    <       0.00000317 Ry

     iteration #  5     ecut=    45.00 Ry     beta= 0.70
     Davidson diagonalization with overlap
     ethr =  6.21E-09,  avg # of iterations =  2.5

     total cpu time spent up to now is      311.9 secs

     total energy              =    -235.37666370 Ry
     estimated scf accuracy    <       0.00000002 Ry

     iteration #  6     ecut=    45.00 Ry     beta= 0.70
     Davidson diagonalization with overlap
     ethr =  4.58E-11,  avg # of iterations =  4.0

     total cpu time spent up to now is      320.1 secs

     End of self-consistent calculation

          k = 0.0000 0.0000 0.0000 (  3827 PWs)   bands (ev):

   -39.3414 -12.3948 -12.1780  -5.6022  -5.6022  -5.4361  -5.4361  -5.4292
    -5.4292  -5.2789  -5.2789  -3.4870  -3.4399  -3.3424  -3.2310  -1.4359
     0.1975   4.0296   4.0296   4.0602   4.0602   6.0022   6.0022   6.4103
     6.4103   7.4213   7.4213   7.6164   7.6164  10.1699  15.2214

          k =-0.0000-0.0000 0.1219 (  3844 PWs)   bands (ev):

   -39.3414 -12.3805 -12.1939  -5.5869  -5.5869  -5.4458  -5.4458  -5.4236
    -5.4236  -5.2923  -5.2923  -3.5004  -3.4271  -3.3337  -3.2401  -1.3144
     0.0240   4.0319   4.0320   4.0578   4.0579   6.1183   6.1183   6.5072
     6.5073   7.2601   7.2601   7.4903   7.4903  10.5582  15.2134

          k =-0.0000-0.0000 0.2439 (  3838 PWs)   bands (ev):

   -39.3414 -12.3496 -12.2272  -5.5476  -5.5476  -5.4869  -5.4869  -5.3947
    -5.3947  -5.3225  -5.3225  -3.5155  -3.4128  -3.3137  -3.2605  -1.0097
    -0.3616   4.0371   4.0371   4.0528   4.0528   6.4371   6.4371   6.7577
     6.7577   6.8708   6.8708   7.1939   7.1939  11.4911  13.8010

          k =-0.0000 0.1644-0.0000 (  3853 PWs)   bands (ev):

   -39.3414 -12.2353 -12.0197  -6.9509  -6.7768  -6.3461  -6.1657  -5.3916
    -5.2532  -4.4280  -4.2815  -2.7580  -2.6812  -2.4031  -2.3081  -1.2450
     0.3832   3.4059   3.4471   3.6831   3.7191   4.6647   5.0318   6.0688
     6.4035   7.2591   7.7372   8.5610   8.9678  10.3377  15.2847

          k =-0.0000 0.1644 0.1219 (  3847 PWs)   bands (ev):

   -39.3414 -12.2209 -12.0357  -6.9368  -6.7921  -6.3306  -6.1823  -5.3814
    -5.2640  -4.4156  -4.2947  -2.7571  -2.6828  -2.3966  -2.3150  -1.1234
     0.2096   3.4093   3.4438   3.6862   3.7163   4.7790   5.1448   5.9112
     6.2499   7.3657   7.8400   8.4164   8.8325  10.7252  15.3270

          k =-0.0000 0.1644 0.2439 (  3833 PWs)   bands (ev):

   -39.3414 -12.1900 -12.0690  -6.9034  -6.8272  -6.2924  -6.2224  -5.3589
    -5.2876  -4.3857  -4.3258  -2.7558  -2.6851  -2.3827  -2.3295  -0.8178
    -0.1770   3.4169   3.4362   3.6931   3.7099   5.0882   5.4522   5.5346
     5.8793   7.6491   8.0739   8.1152   8.5056  11.6489  13.9919

          k =-0.0000 0.3288-0.0000 (  3853 PWs)   bands (ev):

   -39.3413 -11.7582 -11.5470  -8.5163  -8.3305  -6.8960  -6.7055  -5.8159
    -5.6858  -3.0922  -2.9656  -1.5136  -1.4315  -0.7522  -0.6359  -0.6347
     0.9342   1.9347   1.9964   2.7236   2.7842   3.0319   4.2561   4.5050
     5.6524   7.6939   9.0835   9.5620  10.7001  10.8204  14.3027

          k =-0.0000 0.3288 0.1219 (  3832 PWs)   bands (ev):

   -39.3413 -11.7438 -11.5628  -8.5020  -8.3460  -6.8797  -6.7231  -5.8078
    -5.6945  -3.0814  -2.9768  -1.5090  -1.4364  -0.7227  -0.6419  -0.5376
     0.7608   1.9399   1.9912   2.7334   2.7803   3.1452   4.3390   4.3711
     5.4969   7.8022   8.9275   9.6573  10.5754  11.2028  14.5909

          k =-0.0000 0.3288 0.2439 (  3831 PWs)   bands (ev):

   -39.3413 -11.7129 -11.5962  -8.4694  -8.3806  -6.8394  -6.7657  -5.7911
    -5.7121  -3.0558  -3.0034  -1.5001  -1.4460  -0.6985  -0.6549  -0.2427
     0.3727   1.9519   1.9792   2.7481   2.7713   3.4541   3.9511   4.6835
     5.1207   8.0837   8.5741   9.9132  10.2730  12.0901  14.5046

          k =-0.0000 0.4932-0.0000 (  3841 PWs)   bands (ev):

   -39.3412 -10.9701 -10.7675  -9.8780  -9.6787  -7.1722  -6.9762  -6.0742
    -5.9456  -1.5336  -1.4283  -0.0912  -0.0015   0.1867   0.2443   0.2702
     0.5240   0.5642   1.3701   1.4690   1.5444   1.8262   3.0576   3.8633
     5.2732   7.8035   9.2590  11.5251  11.6360  12.6441  13.0565

          k =-0.0000 0.4932 0.1219 (  3831 PWs)   bands (ev):

   -39.3412 -10.9561 -10.7828  -9.8630  -9.6950  -7.1554  -6.9945  -6.0667
    -5.9536  -1.5247  -1.4375  -0.0807  -0.0078   0.1937   0.2630   0.3525
     0.5361   0.5593   1.3880   1.4638   1.6117   1.6975   2.8841   3.9795
     5.1162   7.9121   9.0966  11.7215  11.8890  12.5342  13.4018

          k =-0.0000 0.4932 0.2439 (  3839 PWs)   bands (ev):

   -39.3412 -10.9258 -10.8152  -9.8296  -9.7308  -7.1139  -7.0383  -6.0518
    -5.9693  -1.5036  -1.4592  -0.0633  -0.0212   0.2101   0.2462   0.5102
     0.5461   0.6927   1.2505   1.4241   1.4666   1.9495   2.4900   4.2949
     4.7369   8.1887   8.7384  11.9500  12.2679  12.6834  14.0878

          k = 0.1424 0.2466 0.0000 (  3827 PWs)   bands (ev):

   -39.3413 -11.9169 -11.7042  -7.6852  -7.6098  -7.5149  -7.4184  -4.5172
    -4.4529  -4.3692  -4.3308  -1.4823  -1.4014  -1.3505  -1.2626  -0.8611
     0.7516   2.2777   2.3359   3.1524   3.1953   3.8551   3.8895   5.2674
     5.3528   8.3190   8.4702   9.6486   9.6589  10.6645  15.0327

          k = 0.1424 0.2466 0.1219 (  3842 PWs)   bands (ev):

   -39.3413 -11.9025 -11.7201  -7.6724  -7.5939  -7.5287  -7.4357  -4.5044
    -4.4452  -4.3829  -4.3391  -1.4779  -1.4056  -1.3437  -1.2697  -0.7406
     0.5781   2.2826   2.3312   3.1567   3.1918   3.9692   4.0077   5.1103
     5.1880   8.4295   8.5642   9.5084   9.5196  11.0499  15.2411

          k = 0.1424 0.2466 0.2439 (  3844 PWs)   bands (ev):

   -39.3413 -11.8716 -11.7535  -7.6439  -7.5590  -7.5553  -7.4764  -4.4726
    -4.4293  -4.4160  -4.3560  -1.4700  -1.4135  -1.3281  -1.2856  -0.4350
     0.1901   2.2937   2.3204   3.1660   3.1839   4.2730   4.3293   4.7395
     4.7938   8.7303   8.8045   9.1448   9.2282  11.9509  14.3437

          k = 0.1424 0.4110-0.0000 (  3821 PWs)   bands (ev):

   -39.3413 -11.2840 -11.0774  -9.1157  -8.9249  -8.0791  -7.8920  -4.7936
    -4.6590  -2.9896  -2.8702  -0.2562  -0.1386  -0.0913   0.1514   0.1994
     0.5580   0.6364   1.4744   2.2145   2.2947   2.3732   3.3335   3.8557
     4.7967   8.6370   9.9798  10.2530  11.2790  11.3964  13.6847

          k = 0.1424 0.4110 0.1219 (  3828 PWs)   bands (ev):

   -39.3413 -11.2697 -11.0930  -9.1013  -8.9406  -8.0642  -7.9082  -4.7835
    -4.6698  -2.9801  -2.8803  -0.2292  -0.1446  -0.0005   0.1647   0.1939
     0.5639   0.6301   1.3019   2.2360   2.2905   2.4770   3.4502   3.6890
     4.6327   8.7425   9.8274  10.3493  11.2653  11.6576  13.9996

          k = 0.1424 0.4110 0.2439 (  3844 PWs)   bands (ev):

   -39.3413 -11.2389 -11.1261  -9.0688  -8.9752  -8.0294  -7.9451  -4.7610
    -4.6934  -2.9581  -2.9032  -0.2019  -0.1580   0.1381   0.1809   0.3301
     0.5773   0.6137   0.9187   2.2570   2.2805   2.7807   3.2963   3.7706
     4.2439   9.0176   9.4847  10.5988  10.9696  12.4966  14.6477

          k = 0.1424 0.5753-0.0000 (  3820 PWs)   bands (ev):

   -39.3412 -10.3857 -10.3015 -10.2139 -10.0732  -8.2254  -8.0369  -4.9103
    -4.7754  -1.2853  -1.2595  -1.1805  -1.1623   0.7380   0.8490   0.9406
     0.9768   1.1054   1.1140   1.1263   1.1384   2.4178   2.6428   3.1483
     4.6178   8.6852  10.0599  11.8749  12.3635  12.3705  12.8120

          k = 0.1424 0.5753 0.1219 (  3821 PWs)   bands (ev):

   -39.3412 -10.3770 -10.2825 -10.2234 -10.0941  -8.2105  -8.0532  -4.9004
    -4.7860  -1.2763  -1.2522  -1.1899  -1.1702   0.7697   0.8434   1.0075
     1.0419   1.1179   1.1293   1.1509   1.1636   2.2764   2.4460   3.2680
     4.4532   8.7906   9.9062  12.2223  12.4446  12.4620  13.1506

          k = 0.1424 0.5753 0.2439 (  3828 PWs)   bands (ev):

   -39.3412 -10.3602 -10.2415 -10.2366 -10.1431  -8.1757  -8.0901  -4.8782
    -4.8093  -1.2547  -1.2358  -1.2121  -1.1875   0.8043   0.8291   1.0745
     1.0799   1.1029   1.1274   1.3592   1.4535   1.9705   1.9870   3.5864
     4.0635   9.0629   9.5607  12.6603  12.6846  12.8742  13.0035

          k = 0.2847 0.4932 0.0000 (  3811 PWs)   bands (ev):

   -39.3412 -10.5014 -10.3044  -9.4562  -9.3759  -9.2786  -9.1606  -3.1649
    -3.1099  -3.0334  -3.0007  -1.2916  -1.1902   0.7333   0.9878   0.9982
     1.0061   1.0566   1.6818   1.7493   1.9911   1.9986   2.3395   3.4427
     3.5988  10.3781  10.5737  11.6476  11.6982  11.9841  12.5825

          k = 0.2847 0.4932 0.1219 (  3823 PWs)   bands (ev):

   -39.3412 -10.4877 -10.3193  -9.4447  -9.3580  -9.2913  -9.1802  -3.1535
    -3.1030  -3.0455  -3.0081  -1.2834  -1.1989   0.8274   0.9921   1.0103
     1.0196   1.0527   1.6939   1.7448   2.0671   2.1131   2.2141   3.2861
     3.4127  10.4856  10.6543  11.5326  11.5449  12.3383  12.6642

          k = 0.2847 0.4932 0.2439 (  3823 PWs)   bands (ev):

   -39.3412 -10.4581 -10.3509  -9.4206  -9.3173  -9.3148  -9.2263  -3.1254
    -3.0888  -3.0747  -3.0233  -1.2647  -1.2184   0.9369   0.9761   1.0194
     1.0439   1.2309   1.7121   1.7338   1.7836   2.3924   2.4575   2.9407
     2.9735  10.7785  10.8506  11.1845  11.2924  12.8671  13.0460

     the Fermi energy is     8.0858 ev

!    total energy              =    -235.37666371 Ry
     estimated scf accuracy    <          1.5E-09 Ry
     smearing contrib. (-TS)   =      -0.00104917 Ry
     internal energy E=F+TS    =    -235.37561454 Ry

     The total energy is F=E-TS. E is the sum of the following terms:
     one-electron contribution =     -38.00858828 Ry
     hartree contribution      =      44.08495410 Ry
     xc contribution           =     -59.52776504 Ry
     ewald contribution        =    -108.62780259 Ry
     one-center paw contrib.   =     -73.29641272 Ry

     convergence has been achieved in   6 iterations

     Forces acting on atoms (cartesian axes, Ry/au):

     atom    1 type  1   force =     0.00000000    0.00000000    0.00000000
     atom    2 type  2   force =     0.00003244    0.00005618   -0.00088066
     atom    3 type  2   force =    -0.00006487   -0.00000000   -0.00088066
     atom    4 type  2   force =     0.00003244   -0.00005618   -0.00088066
     atom    5 type  2   force =    -0.00003244   -0.00005618   -0.00088066
     atom    6 type  2   force =     0.00006487    0.00000000   -0.00088066
     atom    7 type  2   force =    -0.00003244    0.00005618   -0.00088066
     atom    8 type  2   force =    -0.00003244   -0.00005618    0.00088066
     atom    9 type  2   force =     0.00006487    0.00000000    0.00088066
     atom   10 type  2   force =    -0.00003244    0.00005618    0.00088066
     atom   11 type  2   force =     0.00003244    0.00005618    0.00088066
     atom   12 type  2   force =    -0.00006487   -0.00000000    0.00088066
     atom   13 type  2   force =     0.00003244   -0.00005618    0.00088066

     Total force =     0.003059     Total SCF correction =     0.000150


     Computing stress (Cartesian axis) and pressure

          total   stress  (Ry/bohr**3)                   (kbar)     P=       -1.54
  -0.00000033  -0.00000000  -0.00000000           -0.05       -0.00       -0.00
  -0.00000000  -0.00000033  -0.00000000           -0.00       -0.05       -0.00
   0.00000000   0.00000000  -0.00003071            0.00        0.00       -4.52

     Energy error            =      2.6E-05
     Gradient error          =      8.8E-04
     Cell gradient error     =      3.1E-05


     number of scf cycles    =   4
     number of bfgs steps    =   2

     enthalpy old            =    -235.3766379541 Ry
     enthalpy new            =    -235.3766637060 Ry

     CASE: enthalpy_new < enthalpy_old


     WARNING: bfgs curvature condition failed, Theta= 0.744
     new trust radius        =       0.0039427336 bohr
     new conv_thr            =       0.0000000100 Ry

     new unit-cell volume =    755.38144 a.u.^3 (   111.93598 Ang^3 )
     density =      2.24111 g/cm^3

CELL_PARAMETERS (angstrom)
   4.292809309   0.000000000   0.000000000
  -2.146404654   3.717682431   0.000000000
   0.000000000   0.000000000   7.013839529

ATOMIC_POSITIONS (angstrom)
Li           -0.0000000000       -0.0000000000       -0.0000000000
C             1.4309574230        2.4784906776        5.1573899367
C             1.4308954662        0.0000000000        5.1573899367
C             3.5773620775        1.2391917537        5.1573899367
C             0.7154472315        1.2391917537        5.1573899367
C             2.8619138428        0.0000000000        5.1573899367
C            -1.4309574230        2.4784906776        5.1573899367
C             0.7154472315        1.2391917537        1.8564505906
C             2.8619138428        0.0000000000        1.8564505906
C            -1.4309574230        2.4784906776        1.8564505906
C             1.4309574230        2.4784906776        1.8564505906
C             1.4308954662        0.0000000000        1.8564505906
C             3.5773620775        1.2391917537        1.8564505906



     Writing output data file ./LiC12.save/
     NEW-OLD atomic charge density approx. for the potential

     Check: negative core charge=   -0.000011
     extrapolated charge   50.93448, renormalised to   51.00000

     total cpu time spent up to now is      332.0 secs

     Self-consistent Calculation

     iteration #  1     ecut=    45.00 Ry     beta= 0.70
     Davidson diagonalization with overlap
     ethr =  1.00E-06,  avg # of iterations =  2.0

     total cpu time spent up to now is      339.6 secs

     total energy              =    -235.37660619 Ry
     estimated scf accuracy    <       0.00005387 Ry

     iteration #  2     ecut=    45.00 Ry     beta= 0.70
     Davidson diagonalization with overlap
     ethr =  1.06E-07,  avg # of iterations =  3.2

     total cpu time spent up to now is      347.5 secs

     total energy              =    -235.37668276 Ry
     estimated scf accuracy    <       0.00009297 Ry

     iteration #  3     ecut=    45.00 Ry     beta= 0.70
     Davidson diagonalization with overlap
     ethr =  1.06E-07,  avg # of iterations =  2.0

     total cpu time spent up to now is      353.7 secs

     total energy              =    -235.37669022 Ry
     estimated scf accuracy    <       0.00001278 Ry

     iteration #  4     ecut=    45.00 Ry     beta= 0.70
     Davidson diagonalization with overlap
     ethr =  2.51E-08,  avg # of iterations =  1.2

     total cpu time spent up to now is      359.0 secs

     total energy              =    -235.37668595 Ry
     estimated scf accuracy    <       0.00000735 Ry

     iteration #  5     ecut=    45.00 Ry     beta= 0.70
     Davidson diagonalization with overlap
     ethr =  1.44E-08,  avg # of iterations =  2.5

     total cpu time spent up to now is      366.3 secs

     total energy              =    -235.37668753 Ry
     estimated scf accuracy    <       0.00000007 Ry

     iteration #  6     ecut=    45.00 Ry     beta= 0.70
     Davidson diagonalization with overlap
     ethr =  1.39E-10,  avg # of iterations =  4.3

     total cpu time spent up to now is      374.2 secs

     End of self-consistent calculation

          k = 0.0000 0.0000 0.0000 (  3827 PWs)   bands (ev):

   -39.3269 -12.3878 -12.1694  -5.5878  -5.5878  -5.4274  -5.4274  -5.4137
    -5.4137  -5.2693  -5.2692  -3.4780  -3.4304  -3.3355  -3.2233  -1.4298
     0.2101   4.0443   4.0444   4.0752   4.0752   6.0171   6.0171   6.4192
     6.4192   7.4422   7.4422   7.6302   7.6302  10.1859  15.2404

          k =-0.0000-0.0000 0.1220 (  3844 PWs)   bands (ev):

   -39.3269 -12.3734 -12.1854  -5.5724  -5.5724  -5.4304  -5.4304  -5.4149
    -5.4149  -5.2827  -5.2826  -3.4914  -3.4176  -3.3267  -3.2324  -1.3080
     0.0361   4.0467   4.0467   4.0728   4.0729   6.1337   6.1337   6.5164
     6.5164   7.2802   7.2802   7.5037   7.5037  10.5750  15.2408

          k =-0.0000-0.0000 0.2440 (  3838 PWs)   bands (ev):

   -39.3269 -12.3425 -12.2188  -5.5330  -5.5330  -5.4717  -5.4716  -5.3860
    -5.3860  -5.3130  -5.3129  -3.5066  -3.4032  -3.3067  -3.2529  -1.0030
    -0.3503   4.0519   4.0519   4.0678   4.0678   6.4539   6.4539   6.7672
     6.7672   6.8891   6.8891   7.2067   7.2067  11.5090  13.8279

          k =-0.0000 0.1644-0.0000 (  3853 PWs)   bands (ev):

   -39.3269 -12.2281 -12.0111  -6.9404  -6.7652  -6.3346  -6.1530  -5.3818
    -5.2425  -4.4164  -4.2689  -2.7485  -2.6711  -2.3938  -2.2981  -1.2387
     0.3959   3.4205   3.4620   3.6975   3.7338   4.6758   5.0434   6.0855
     6.4204   7.2712   7.7498   8.5786   8.9859  10.3538  15.3028

          k =-0.0000 0.1644 0.1220 (  3847 PWs)   bands (ev):

   -39.3269 -12.2137 -12.0271  -6.9262  -6.7804  -6.3190  -6.1698  -5.3716
    -5.2534  -4.4039  -4.2821  -2.7476  -2.6727  -2.3872  -2.3051  -1.1169
     0.2218   3.4238   3.4586   3.7007   3.7310   4.7905   5.1567   5.9273
     6.2662   7.3781   7.8530   8.4334   8.8499  10.7420  15.3461

          k =-0.0000 0.1644 0.2440 (  3833 PWs)   bands (ev):

   -39.3269 -12.1827 -12.0605  -6.8928  -6.8156  -6.2808  -6.2100  -5.3491
    -5.2769  -4.3739  -4.3134  -2.7463  -2.6750  -2.3734  -2.3196  -0.8109
    -0.1656   3.4315   3.4511   3.7076   3.7246   5.1004   5.4649   5.5496
     5.8944   7.6623   8.0898   8.1290   8.5219  11.6668  14.0189

          k =-0.0000 0.3289-0.0000 (  3853 PWs)   bands (ev):

   -39.3268 -11.7508 -11.5381  -8.5070  -8.3200  -6.8848  -6.6930  -5.8070
    -5.6761  -3.0800  -2.9525  -1.5033  -1.4206  -0.7429  -0.6261  -0.6242
     0.9474   1.9488   2.0108   2.7369   2.7981   3.0418   4.2668   4.5205
     5.6687   7.7063   9.1014   9.5763  10.7196  10.8364  14.3203

          k =-0.0000 0.3289 0.1220 (  3832 PWs)   bands (ev):

   -39.3268 -11.7364 -11.5540  -8.4927  -8.3355  -6.8684  -6.7108  -5.7989
    -5.6848  -3.0692  -2.9638  -1.4987  -1.4256  -0.7121  -0.6302  -0.5301
     0.7734   1.9540   2.0056   2.7468   2.7942   3.1552   4.3539   4.3822
     5.5125   7.8149   8.9448   9.6720  10.5943  11.2196  14.6095

          k =-0.0000 0.3289 0.2440 (  3831 PWs)   bands (ev):

   -39.3268 -11.7054 -11.5874  -8.4600  -8.3702  -6.8280  -6.7535  -5.7822
    -5.7024  -3.0434  -2.9904  -1.4897  -1.4351  -0.6874  -0.6433  -0.2352
     0.3845   1.9660   1.9936   2.7618   2.7852   3.4646   3.9650   4.6955
     5.1352   8.0967   8.5907   9.9287  10.2907  12.1080  14.5312

          k =-0.0000 0.4933-0.0000 (  3841 PWs)   bands (ev):

   -39.3267 -10.9621 -10.7580  -9.8696  -9.6691  -7.1611  -6.9639  -6.0656
    -5.9362  -1.5208  -1.4148  -0.0802   0.0103   0.2001   0.2521   0.2841
     0.5358   0.5765   1.3815   1.4819   1.5539   1.8401   3.0719   3.8737
     5.2891   7.8158   9.2769  11.5407  11.6522  12.6651  13.0743

          k =-0.0000 0.4933 0.1220 (  3831 PWs)   bands (ev):

   -39.3267 -10.9481 -10.7734  -9.8546  -9.6854  -7.1443  -6.9822  -6.0582
    -5.9442  -1.5119  -1.4241  -0.0696   0.0040   0.2071   0.2769   0.3607
     0.5476   0.5716   1.4000   1.4767   1.6225   1.7092   2.8978   3.9903
     5.1316   7.9246   9.1140  11.7380  11.9054  12.5546  13.4203

          k =-0.0000 0.4933 0.2440 (  3839 PWs)   bands (ev):

   -39.3267 -10.9177 -10.8059  -9.8212  -9.7213  -7.1027  -7.0262  -6.0433
    -5.9599  -1.4908  -1.4458  -0.0520  -0.0094   0.2236   0.2601   0.5219
     0.5583   0.7012   1.2626   1.4366   1.4796   1.9586   2.5030   4.3065
     4.7511   8.2015   8.7551  11.9673  12.2872  12.7009  14.1071

          k = 0.1424 0.2466-0.0000 (  3827 PWs)   bands (ev):

   -39.3268 -11.9096 -11.6954  -7.6740  -7.6012  -7.5026  -7.4086  -4.5050
    -4.4435  -4.3560  -4.3206  -1.4710  -1.3894  -1.3405  -1.2520  -0.8544
     0.7646   2.2917   2.3504   3.1663   3.2095   3.8662   3.8992   5.2840
     5.3681   8.3330   8.4826   9.6662   9.6784  10.6805  15.0495

          k = 0.1424 0.2466 0.1220 (  3842 PWs)   bands (ev):

   -39.3268 -11.8951 -11.7113  -7.6612  -7.5851  -7.5165  -7.4259  -4.4921
    -4.4358  -4.3698  -4.3289  -1.4666  -1.3937  -1.3336  -1.2591  -0.7337
     0.5905   2.2967   2.3456   3.1707   3.2061   3.9806   4.0177   5.1264
     5.2026   8.4439   8.5769   9.5272   9.5367  11.0667  15.2599

          k = 0.1424 0.2466 0.2440 (  3844 PWs)   bands (ev):

   -39.3268 -11.8642 -11.7448  -7.6327  -7.5467  -7.5465  -7.4667  -4.4602
    -4.4199  -4.4029  -4.3458  -1.4586  -1.4016  -1.3180  -1.2750  -0.4278
     0.2018   2.3079   2.3348   3.1800   3.1981   4.2849   4.3400   4.7546
     4.8074   8.7456   8.8176   9.1623   9.2446  11.9688  14.3705

          k = 0.1424 0.4111-0.0000 (  3821 PWs)   bands (ev):

   -39.3268 -11.2762 -11.0681  -9.1068  -8.9147  -8.0696  -7.8813  -4.7832
    -4.6477  -2.9780  -2.8578  -0.2462  -0.1266  -0.0826   0.1630   0.2116
     0.5714   0.6503   1.4880   2.2267   2.3083   2.3833   3.3434   3.8706
     4.8122   8.6503   9.9984  10.2678  11.2949  11.4163  13.7018

          k = 0.1424 0.4111 0.1220 (  3828 PWs)   bands (ev):

   -39.3268 -11.2619 -11.0839  -9.0923  -8.9305  -8.0547  -7.8975  -4.7731
    -4.6585  -2.9684  -2.8679  -0.2182  -0.1326   0.0079   0.1760   0.2061
     0.5772   0.6440   1.3148   2.2489   2.3041   2.4868   3.4604   3.7033
     4.6476   8.7561   9.8454  10.3644  11.2846  11.6743  14.0175

          k = 0.1424 0.4111 0.2440 (  3844 PWs)   bands (ev):

   -39.3268 -11.2310 -11.1171  -9.0597  -8.9651  -8.0198  -7.9345  -4.7506
    -4.6822  -2.9464  -2.8909  -0.1905  -0.1461   0.1496   0.1931   0.3384
     0.5907   0.6274   0.9309   2.2702   2.2940   2.7906   3.3097   3.7814
     4.2578   9.0316   9.5020  10.6146  10.9879  12.5144  14.6676

          k = 0.1424 0.5755-0.0000 (  3820 PWs)   bands (ev):

   -39.3267 -10.3757 -10.2950 -10.2026 -10.0653  -8.2160  -8.0263  -4.9001
    -4.7642  -1.2704  -1.2495  -1.1649  -1.1516   0.7480   0.8611   0.9509
     0.9860   1.1157   1.1269   1.1415   1.1492   2.4332   2.6557   3.1580
     4.6331   8.6984  10.0784  11.8902  12.3822  12.3855  12.8296

          k = 0.1424 0.5755 0.1220 (  3821 PWs)   bands (ev):

   -39.3267 -10.3671 -10.2759 -10.2121 -10.0862  -8.2010  -8.0426  -4.8901
    -4.7749  -1.2614  -1.2421  -1.1743  -1.1596   0.7807   0.8554   1.0195
     1.0517   1.1329   1.1399   1.1610   1.1746   2.2912   2.4582   3.2781
     4.4680   8.8041   9.9243  12.2384  12.4635  12.4773  13.1688

          k = 0.1424 0.5755 0.2440 (  3828 PWs)   bands (ev):

   -39.3267 -10.3502 -10.2303 -10.2299 -10.1354  -8.1661  -8.0796  -4.8680
    -4.7982  -1.2397  -1.2257  -1.1967  -1.1769   0.8159   0.8411   1.0893
     1.0902   1.1180   1.1381   1.3690   1.4616   1.9848   1.9981   3.5971
     4.0772   9.0767   9.5782  12.6799  12.7005  12.8934  13.0216

          k = 0.2848 0.4933-0.0000 (  3811 PWs)   bands (ev):

   -39.3267 -10.4931 -10.2946  -9.4462  -9.3687  -9.2675  -9.1522  -3.1517
    -3.1003  -3.0194  -2.9903  -1.2793  -1.1773   0.7414   0.9987   1.0099
     1.0193   1.0702   1.6944   1.7626   1.9991   2.0085   2.3538   3.4580
     3.6125  10.3942  10.5875  11.6658  11.7198  11.9996  12.5993

          k = 0.2848 0.4933 0.1220 (  3823 PWs)   bands (ev):

   -39.3267 -10.4794 -10.3095  -9.4347  -9.3508  -9.2802  -9.1718  -3.1403
    -3.0934  -3.0315  -2.9978  -1.2711  -1.1860   0.8365   1.0038   1.0234
     1.0299   1.0662   1.7067   1.7580   2.0780   2.1213   2.2270   3.3011
     3.4257  10.5022  10.6683  11.5506  11.5658  12.3547  12.6813

          k = 0.2848 0.4933 0.2440 (  3823 PWs)   bands (ev):

   -39.3267 -10.4496 -10.3413  -9.4106  -9.3075  -9.3061  -9.2180  -3.1121
    -3.0792  -3.0608  -3.0130  -1.2524  -1.2056   0.9481   0.9877   1.0326
     1.0574   1.2398   1.7250   1.7470   1.7963   2.4026   2.4663   2.9553
     2.9853  10.7960  10.8646  11.2042  11.3101  12.8848  13.0642

     the Fermi energy is     8.0998 ev

!    total energy              =    -235.37668757 Ry
     estimated scf accuracy    <          3.7E-09 Ry
     smearing contrib. (-TS)   =      -0.00104986 Ry
     internal energy E=F+TS    =    -235.37563771 Ry

     The total energy is F=E-TS. E is the sum of the following terms:
     one-electron contribution =     -37.86557079 Ry
     hartree contribution      =      44.04065275 Ry
     xc contribution           =     -59.53617324 Ry
     ewald contribution        =    -108.71778930 Ry
     one-center paw contrib.   =     -73.29675713 Ry

     convergence has been achieved in   6 iterations

     Forces acting on atoms (cartesian axes, Ry/au):

[...]
         3           C   tau(   3) = (   0.3343712   0.0000000   1.1894488  )
         4           C   tau(   4) = (   0.8362077   0.2895739   1.1894488  )
         5           C   tau(   5) = (   0.1671855   0.2895739   1.1894488  )
         6           C   tau(   6) = (   0.6690220   0.0000000   1.1894488  )
         7           C   tau(   7) = (  -0.3345111   0.5793902   1.1894488  )
         8           C   tau(   8) = (   0.1671855   0.2895739   0.4358297  )
         9           C   tau(   9) = (   0.6690220   0.0000000   0.4358297  )
        10           C   tau(  10) = (  -0.3345111   0.5793902   0.4358297  )
        11           C   tau(  11) = (   0.3345111   0.5793902   0.4358297  )
        12           C   tau(  12) = (   0.3343712   0.0000000   0.4358297  )
        13           C   tau(  13) = (   0.8362077   0.2895739   0.4358297  )

     number of k points=    24  Gaussian smearing, width (Ry)=  0.0100
                       cart. coord. in units 2pi/alat
        k(    1) = (   0.0000000   0.0000000   0.0000000), wk =   0.0081633
        k(    2) = (  -0.0000000  -0.0000000   0.1230558), wk =   0.0163265
        k(    3) = (  -0.0000000  -0.0000000   0.2461117), wk =   0.0163265
        k(    4) = (  -0.0000000   0.1643994  -0.0000000), wk =   0.0489796
        k(    5) = (  -0.0000000   0.1643994   0.1230558), wk =   0.0979592
        k(    6) = (  -0.0000000   0.1643994   0.2461117), wk =   0.0979592
        k(    7) = (  -0.0000000   0.3287987  -0.0000000), wk =   0.0489796
        k(    8) = (  -0.0000000   0.3287987   0.1230558), wk =   0.0979592
        k(    9) = (  -0.0000000   0.3287987   0.2461117), wk =   0.0979592
        k(   10) = (  -0.0000000   0.4931981  -0.0000000), wk =   0.0489796
        k(   11) = (  -0.0000000   0.4931981   0.1230558), wk =   0.0979592
        k(   12) = (  -0.0000000   0.4931981   0.2461117), wk =   0.0979592
        k(   13) = (   0.1423740   0.2465990  -0.0000000), wk =   0.0489796
        k(   14) = (   0.1423740   0.2465990   0.1230558), wk =   0.0979592
        k(   15) = (   0.1423740   0.2465990   0.2461117), wk =   0.0979592
        k(   16) = (   0.1423740   0.4109984  -0.0000000), wk =   0.0979592
        k(   17) = (   0.1423740   0.4109984   0.1230558), wk =   0.1959184
        k(   18) = (   0.1423740   0.4109984   0.2461117), wk =   0.1959184
        k(   19) = (   0.1423740   0.5753978  -0.0000000), wk =   0.0489796
        k(   20) = (   0.1423740   0.5753978   0.1230558), wk =   0.0979592
        k(   21) = (   0.1423740   0.5753978   0.2461117), wk =   0.0979592
        k(   22) = (   0.2847481   0.4931981  -0.0000000), wk =   0.0489796
        k(   23) = (   0.2847481   0.4931981   0.1230558), wk =   0.0979592
        k(   24) = (   0.2847481   0.4931981   0.2461117), wk =   0.0979592

     Dense  grid:    86449 G-vectors     FFT dimensions: (  50,  50,  80)

     Smooth grid:    30567 G-vectors     FFT dimensions: (  36,  36,  60)

     Estimated max dynamical RAM per process >      57.28 MB

     Estimated total dynamical RAM >     229.10 MB

     Check: negative core charge=   -0.000011

     Initial potential from superposition of free atoms

     starting charge   50.54876, renormalised to   51.00000
     Starting wfcs are   53 randomized atomic wfcs
     Checking if some PAW data can be deallocated... 

     total cpu time spent up to now is     1437.9 secs

     Self-consistent Calculation

     iteration #  1     ecut=    45.00 Ry     beta= 0.70
     Davidson diagonalization with overlap
     c_bands:  1 eigenvalues not converged
     c_bands:  1 eigenvalues not converged
     c_bands:  1 eigenvalues not converged
     c_bands:  1 eigenvalues not converged
     c_bands:  1 eigenvalues not converged
     c_bands:  1 eigenvalues not converged
     c_bands:  1 eigenvalues not converged
     c_bands:  2 eigenvalues not converged
     c_bands:  1 eigenvalues not converged
     c_bands:  1 eigenvalues not converged
     c_bands:  1 eigenvalues not converged
     c_bands:  1 eigenvalues not converged
     c_bands:  1 eigenvalues not converged
     c_bands:  1 eigenvalues not converged
     c_bands:  1 eigenvalues not converged
     ethr =  1.00E-06,  avg # of iterations = 18.9

     total cpu time spent up to now is     1463.5 secs

     total energy              =    -235.17374094 Ry
     estimated scf accuracy    <       1.07472653 Ry

     iteration #  2     ecut=    45.00 Ry     beta= 0.70
     Davidson diagonalization with overlap
     ethr =  2.11E-03,  avg # of iterations =  2.1

     total cpu time spent up to now is     1471.1 secs

     total energy              =    -235.34703602 Ry
     estimated scf accuracy    <       0.07857891 Ry

     iteration #  3     ecut=    45.00 Ry     beta= 0.70
     Davidson diagonalization with overlap
     ethr =  1.54E-04,  avg # of iterations =  6.3

     total cpu time spent up to now is     1479.0 secs

     total energy              =    -235.36467774 Ry
     estimated scf accuracy    <       0.05784093 Ry

     iteration #  4     ecut=    45.00 Ry     beta= 0.70
     Davidson diagonalization with overlap
     ethr =  1.13E-04,  avg # of iterations =  2.3

     total cpu time spent up to now is     1485.7 secs

     total energy              =    -235.37690007 Ry
     estimated scf accuracy    <       0.00073278 Ry

     iteration #  5     ecut=    45.00 Ry     beta= 0.70
     Davidson diagonalization with overlap
     c_bands:  1 eigenvalues not converged
     c_bands:  1 eigenvalues not converged
     ethr =  1.44E-06,  avg # of iterations =  9.7

     total cpu time spent up to now is     1494.6 secs

     total energy              =    -235.37700296 Ry
     estimated scf accuracy    <       0.00012089 Ry

     iteration #  6     ecut=    45.00 Ry     beta= 0.70
     Davidson diagonalization with overlap
     ethr =  2.37E-07,  avg # of iterations =  2.5

     total cpu time spent up to now is     1501.3 secs

     total energy              =    -235.37702406 Ry
     estimated scf accuracy    <       0.00000183 Ry

     iteration #  7     ecut=    45.00 Ry     beta= 0.70
     Davidson diagonalization with overlap
     ethr =  3.60E-09,  avg # of iterations =  4.5

     total cpu time spent up to now is     1510.0 secs

     total energy              =    -235.37702527 Ry
     estimated scf accuracy    <       0.00000067 Ry

     iteration #  8     ecut=    45.00 Ry     beta= 0.70
     Davidson diagonalization with overlap
     ethr =  1.31E-09,  avg # of iterations =  2.1

     total cpu time spent up to now is     1516.5 secs

     End of self-consistent calculation

          k = 0.0000 0.0000 0.0000 (  3827 PWs)   bands (ev):

   -39.2420 -12.2945 -12.0471  -5.4939  -5.4939  -5.3291  -5.3291  -5.3009
    -5.3009  -5.1503  -5.1502  -3.3778  -3.3137  -3.2339  -3.1072  -1.3740
     0.3771   4.1466   4.1466   4.1828   4.1828   6.0797   6.0798   6.4831
     6.4831   7.5873   7.5873   7.7844   7.7844  10.2989  15.3363

          k =-0.0000-0.0000 0.1231 (  3832 PWs)   bands (ev):

   -39.2420 -12.2802 -12.0632  -5.4778  -5.4778  -5.3184  -5.3184  -5.3164
    -5.3163  -5.1640  -5.1640  -3.3903  -3.3018  -3.2250  -3.1165  -1.2505
     0.1973   4.1490   4.1490   4.1805   4.1805   6.2020   6.2020   6.5826
     6.5826   7.4150   7.4150   7.6529   7.6529  10.6925  15.3570

          k =-0.0000-0.0000 0.2461 (  3820 PWs)   bands (ev):

   -39.2420 -12.2508 -12.0954  -5.4390  -5.4390  -5.3594  -5.3593  -5.2886
    -5.2886  -5.1933  -5.1933  -3.4056  -3.2874  -3.2058  -3.1363  -0.9518
    -0.1887   4.1539   4.1539   4.1756   4.1757   6.5374   6.5374   6.8298
     6.8298   7.0018   7.0018   7.3553   7.3553  11.6126  14.1567

          k =-0.0000 0.1644-0.0000 (  3837 PWs)   bands (ev):

   -39.2420 -12.1347 -11.8889  -6.8448  -6.6479  -6.2392  -6.0365  -5.2842
    -5.1256  -4.3193  -4.1537  -2.6481  -2.5557  -2.2931  -2.1833  -1.1826
     0.5624   3.5221   3.5702   3.7996   3.8419   4.7376   5.1063   6.2384
     6.5719   7.3338   7.8137   8.7278   9.1329  10.4650  15.3966

          k =-0.0000 0.1644 0.1231 (  3833 PWs)   bands (ev):

   -39.2420 -12.1204 -11.9050  -6.8303  -6.6636  -6.2232  -6.0540  -5.2739
    -5.1367  -4.3065  -4.1673  -2.6473  -2.5572  -2.2866  -2.1904  -1.0590
     0.3825   3.5256   3.5668   3.8029   3.8390   4.8562   5.2239   6.0721
     6.4093   7.4440   7.9207   8.5758   8.9899  10.8579  15.4427

          k =-0.0000 0.1644 0.2461 (  3814 PWs)   bands (ev):

   -39.2420 -12.0910 -11.9373  -6.7982  -6.6978  -6.1860  -6.0935  -5.2525
    -5.1593  -4.2775  -4.1978  -2.6462  -2.5594  -2.2734  -2.2043  -0.7593
    -0.0046   3.5329   3.5596   3.8096   3.8329   5.1687   5.5373   5.6858
     6.0263   7.7281   8.1990   8.2268   8.6545  11.7694  14.3524

          k =-0.0000 0.3288-0.0000 (  3833 PWs)   bands (ev):

   -39.2419 -11.6572 -11.4163  -8.4119  -8.2010  -6.7897  -6.5760  -5.7091
    -5.5585  -2.9822  -2.8385  -1.4026  -1.3065  -0.6638  -0.5470  -0.5118
     1.1126   2.0494   2.1205   2.8363   2.9073   3.1043   4.3295   4.6777
     5.8217   7.7662   9.2523   9.6410  10.8624  10.9419  14.4102

          k =-0.0000 0.3288 0.1231 (  3821 PWs)   bands (ev):

   -39.2419 -11.6428 -11.4324  -8.3974  -8.2169  -6.7729  -6.5945  -5.7010
    -5.5673  -2.9711  -2.8502  -1.3981  -1.3115  -0.6172  -0.5178  -0.4648
     0.9325   2.0548   2.1152   2.8480   2.9033   3.2194   4.4492   4.5037
     5.6573   7.8769   9.0894   9.7402  10.7303  11.3301  14.7091

          k =-0.0000 0.3288 0.2461 (  3821 PWs)   bands (ev):

   -39.2419 -11.6134 -11.4646  -8.3660  -8.2506  -6.7336  -6.6364  -5.6852
    -5.5842  -2.9462  -2.8761  -1.3896  -1.3206  -0.5878  -0.5302  -0.1813
     0.5434   2.0663   2.1036   2.8634   2.8948   3.5265   4.1100   4.7672
     5.2693   8.1549   8.7332   9.9995  10.4194  12.2068  14.8552

          k =-0.0000 0.4932-0.0000 (  3819 PWs)   bands (ev):

   -39.2418 -10.8682 -10.6371  -9.7749  -9.5487  -7.0662  -6.8466  -5.9677
    -5.8183  -1.4221  -1.3022   0.0187   0.1229   0.2997   0.3146   0.3953
     0.6364   0.6872   1.4685   1.5926   1.6265   2.0031   3.2330   3.9364
     5.4429   7.8738   9.4294  11.6341  11.7182  12.8024  13.1797

          k =-0.0000 0.4932 0.1231 (  3824 PWs)   bands (ev):

   -39.2418 -10.8542 -10.6526  -9.7599  -9.5654  -7.0489  -6.8656  -5.9603
    -5.8263  -1.4130  -1.3117   0.0307   0.1165   0.3069   0.3879   0.4262
     0.6463   0.6822   1.4966   1.5871   1.7066   1.8482   3.0517   4.0572
     5.2771   7.9842   9.2607  11.8074  12.0036  12.6858  13.9823

          k =-0.0000 0.4932 0.2461 (  3827 PWs)   bands (ev):

   -39.2418 -10.8254 -10.6839  -9.7278  -9.6001  -7.0084  -6.9089  -5.9462
    -5.8414  -1.3926  -1.3328   0.0484   0.1037   0.3228   0.3716   0.6191
     0.6693   0.7614   1.4111   1.5386   1.5961   2.0175   2.6541   4.3780
     4.8861   8.2554   8.9013  12.0391  12.4117  12.7919  14.1810

          k = 0.1424 0.2466-0.0000 (  3821 PWs)   bands (ev):

   -39.2419 -11.8161 -11.5735  -7.5797  -7.5046  -7.3857  -7.2893  -4.4085
    -4.3448  -4.2423  -4.2031  -1.3710  -1.2756  -1.2396  -1.1388  -0.7972
     0.9302   2.3926   2.4598   3.2685   3.3181   3.9260   3.9619   5.4380
     5.5238   8.3964   8.5448   9.8140   9.8242  10.7879  15.1826

          k = 0.1424 0.2466 0.1231 (  3830 PWs)   bands (ev):

   -39.2419 -11.8017 -11.5896  -7.5669  -7.4882  -7.3997  -7.3072  -4.3952
    -4.3371  -4.2565  -4.2114  -1.3666  -1.2798  -1.2326  -1.1460  -0.6748
     0.7502   2.3977   2.4550   3.2731   3.3145   4.0439   4.0844   5.2730
     5.3502   8.5114   8.6411   9.6649   9.6791  11.1794  15.3635

          k = 0.1424 0.2466 0.2461 (  3832 PWs)   bands (ev):

   -39.2419 -11.7722 -11.6219  -7.5395  -7.4508  -7.4290  -7.3471  -4.3641
    -4.3221  -4.2891  -4.2275  -1.3590  -1.2874  -1.2177  -1.1614  -0.3751
     0.3614   2.4084   2.4447   3.2822   3.3069   4.3478   4.4095   4.8958
     4.9456   8.8187   8.8777   9.2884   9.3866  12.0692  14.7014

          k = 0.1424 0.4110-0.0000 (  3805 PWs)   bands (ev):

   -39.2418 -11.1824 -10.9469  -9.0119  -8.7952  -7.9742  -7.7626  -4.6856
    -4.5316  -2.8797  -2.7434  -0.1606  -0.0141  -0.0074   0.2632   0.3228
     0.6709   0.7613   1.6518   2.3169   2.4178   2.4545   3.4043   4.0295
     4.9684   8.7112  10.1468  10.3319  11.3945  11.5582  13.7915

          k = 0.1424 0.4110 0.1231 (  3815 PWs)   bands (ev):

   -39.2418 -11.1682 -10.9627  -8.9973  -8.8113  -7.9590  -7.7793  -4.6754
    -4.5426  -2.8700  -2.7538  -0.1225  -0.0202   0.0772   0.2741   0.3173
     0.6770   0.7548   1.4723   2.3482   2.4134   2.5524   3.5254   3.8547
     4.7959   8.8192   9.9870  10.4320  11.4195  11.7802  14.1127

          k = 0.1424 0.4110 0.2461 (  3829 PWs)   bands (ev):

   -39.2418 -11.1388 -10.9948  -8.9662  -8.8448  -7.9255  -7.8152  -4.6539
    -4.5655  -2.8489  -2.7760  -0.0907  -0.0329   0.2455   0.3048   0.3993
     0.6904   0.7383   1.0876   2.3720   2.4039   2.8506   3.4573   3.8474
     4.3989   9.0913   9.6418  10.6815  11.1190  12.6099  14.8413

          k = 0.1424 0.5754-0.0000 (  3818 PWs)   bands (ev):

   -39.2418 -10.2834 -10.1987 -10.0836  -9.9432  -8.1207  -7.9075  -4.8025
    -4.6479  -1.1743  -1.1474  -1.0555  -1.0355   0.8402   0.9722   1.0319
     1.0440   1.2162   1.2178   1.2486   1.2629   2.5929   2.8197   3.2189
     4.7896   8.7584  10.2277  11.9766  12.4462  12.4563  12.9327

          k = 0.1424 0.5754 0.1231 (  3818 PWs)   bands (ev):

   -39.2418 -10.2749 -10.1793 -10.0930  -9.9649  -8.1055  -7.9243  -4.7925
    -4.6588  -1.1651  -1.1400  -1.0652  -1.0436   0.8813   0.9661   1.1059
     1.1242   1.2355   1.2385   1.2607   1.2629   2.4470   2.6128   3.3429
     4.6167   8.8658  10.0677  12.3299  12.5305  12.5492  13.4033

          k = 0.1424 0.5754 0.2461 (  3823 PWs)   bands (ev):

   -39.2418 -10.2590 -10.1347 -10.1104 -10.0130  -8.0720  -7.9602  -4.7714
    -4.6813  -1.1441  -1.1244  -1.0869  -1.0602   0.9200   0.9522   1.1882
     1.1885   1.2246   1.2521   1.4228   1.5291   2.1430   2.1432   3.6625
     4.2189   9.1338   9.7203  12.7489  12.7713  12.9917  13.1500

          k = 0.2847 0.4932-0.0000 (  3793 PWs)   bands (ev):

   -39.2418 -10.3991 -10.1742  -9.3528  -9.2723  -9.1487  -9.0310  -3.0553
    -3.0003  -2.9073  -2.8733  -1.1801  -1.0643   0.8063   1.0962   1.1201
     1.1223   1.1788   1.7937   1.8722   2.0642   2.0644   2.5155   3.6169
     3.7737  10.4584  10.6500  11.8102  11.8607  12.0910  12.6643

          k = 0.2847 0.4932 0.1231 (  3804 PWs)   bands (ev):

   -39.2418 -10.3854 -10.1893  -9.3414  -9.2540  -9.1615  -9.0513  -3.0435
    -2.9935  -2.9199  -2.8808  -1.1718  -1.0732   0.9109   1.1152   1.1212
     1.1243   1.1748   1.8083   1.8674   2.1504   2.1886   2.3679   3.4539
     3.5780  10.5700  10.7314  11.6906  11.6991  12.4519  12.7492

          k = 0.2847 0.4932 0.2461 (  3808 PWs)   bands (ev):

   -39.2418 -10.3571 -10.2198  -9.3184  -9.2121  -9.1865  -9.0964  -3.0160
    -2.9801  -2.9486  -2.8954  -1.1539  -1.0921   1.0481   1.1004   1.1331
     1.1664   1.2992   1.8274   1.8568   1.9492   2.4564   2.5348   3.1082
     3.1280  10.8687  10.9218  11.3266  11.4524  12.9525  13.1635

     the Fermi energy is     8.1804 ev

!    total energy              =    -235.37702541 Ry
     estimated scf accuracy    <          1.1E-09 Ry
     smearing contrib. (-TS)   =      -0.00104477 Ry
     internal energy E=F+TS    =    -235.37598064 Ry

     The total energy is F=E-TS. E is the sum of the following terms:
     one-electron contribution =     -36.21622320 Ry
     hartree contribution      =      43.41302356 Ry
     xc contribution           =     -59.53665540 Ry
     ewald contribution        =    -109.73951205 Ry
     one-center paw contrib.   =     -73.29661356 Ry

     convergence has been achieved in   8 iterations

     Forces acting on atoms (cartesian axes, Ry/au):

     atom    1 type  1   force =     0.00000000    0.00000000    0.00000000
     atom    2 type  2   force =    -0.00000309   -0.00000536   -0.00007832
     atom    3 type  2   force =     0.00000619    0.00000000   -0.00007832
     atom    4 type  2   force =    -0.00000309    0.00000536   -0.00007832
     atom    5 type  2   force =     0.00000309    0.00000536   -0.00007832
     atom    6 type  2   force =    -0.00000619   -0.00000000   -0.00007832
     atom    7 type  2   force =     0.00000309   -0.00000536   -0.00007832
     atom    8 type  2   force =     0.00000309    0.00000536    0.00007832
     atom    9 type  2   force =    -0.00000619    0.00000000    0.00007832
     atom   10 type  2   force =     0.00000309   -0.00000536    0.00007832
     atom   11 type  2   force =    -0.00000309   -0.00000536    0.00007832
     atom   12 type  2   force =     0.00000619   -0.00000000    0.00007832
     atom   13 type  2   force =    -0.00000309    0.00000536    0.00007832

     Total force =     0.000272     Total SCF correction =     0.000101
     SCF correction compared to forces is large: reduce conv_thr to get better values


     Computing stress (Cartesian axis) and pressure

          total   stress  (Ry/bohr**3)                   (kbar)     P=       -0.07
  -0.00000003   0.00000000   0.00000000           -0.00        0.00        0.00
   0.00000000  -0.00000003   0.00000000            0.00       -0.00        0.00
   0.00000000  -0.00000000  -0.00000129            0.00       -0.00       -0.19


     Writing output data file ./LiC12.save/

     init_run     :     87.05s CPU     87.22s WALL (       2 calls)
     electrons    :   1128.08s CPU   1151.58s WALL (      24 calls)
     update_pot   :     72.44s CPU     72.98s WALL (      22 calls)
     forces       :     75.01s CPU     75.43s WALL (      24 calls)
     stress       :    124.86s CPU    126.06s WALL (      24 calls)

     Called by init_run:
     wfcinit      :      6.02s CPU      6.13s WALL (       2 calls)
     potinit      :     77.74s CPU     77.78s WALL (       2 calls)
     hinit0       :      3.09s CPU      3.10s WALL (       2 calls)

     Called by electrons:
     c_bands      :    927.36s CPU    944.58s WALL (     157 calls)
     sum_band     :    109.05s CPU    112.44s WALL (     157 calls)
     v_of_rho     :    147.29s CPU    149.92s WALL (     169 calls)
     newd         :     11.07s CPU     11.60s WALL (     169 calls)
     PAW_pot      :     24.54s CPU     24.69s WALL (     191 calls)
     mix_rho      :      0.78s CPU      0.81s WALL (     157 calls)
     vdW_kernel   :     75.18s CPU     75.18s WALL (       1 calls)

     Called by c_bands:
     init_us_2    :      7.65s CPU      7.73s WALL (    9264 calls)
     cegterg      :    907.39s CPU    924.43s WALL (    3768 calls)

     Called by *egterg:
     cdiaghg      :     43.66s CPU     44.11s WALL (   14654 calls)
     h_psi        :    483.70s CPU    498.48s WALL (   15518 calls)
     s_psi        :     87.87s CPU     88.14s WALL (   15518 calls)
     g_psi        :      3.82s CPU      3.85s WALL (   11702 calls)

     Called by h_psi:
     h_psi:calbec :    111.39s CPU    114.32s WALL (   15518 calls)
     vloc_psi     :    279.89s CPU    291.35s WALL (   15518 calls)
     add_vuspsi   :     91.19s CPU     91.63s WALL (   15518 calls)

     General routines
     calbec       :    190.96s CPU    195.30s WALL (   22694 calls)
     fft          :     33.77s CPU     35.14s WALL (   14689 calls)
     ffts         :      0.23s CPU      0.24s WALL (     326 calls)
     fftw         :    305.23s CPU    317.60s WALL (  754876 calls)
     interpolate  :      0.48s CPU      0.48s WALL (     169 calls)

     Parallel routines
     fft_scatt_xy :     27.52s CPU     28.64s WALL (  769891 calls)
     fft_scatt_yz :    118.54s CPU    123.22s WALL (  769891 calls)

     PWSCF        :  24m58.90s CPU  25m24.89s WALL


   This run was terminated on:  15:21:27  17Jun2023            

=------------------------------------------------------------------------------=
   JOB DONE.
=------------------------------------------------------------------------------=
