
     Program PWSCF v.6.7MaX starts on 17Jun2023 at 14:49:23 

     This program is part of the open-source Quantum ESPRESSO suite
     for quantum simulation of materials; please cite
         "P. Giannozzi et al., J. Phys.:Condens. Matter 21 395502 (2009);
         "P. Giannozzi et al., J. Phys.:Condens. Matter 29 465901 (2017);
          URL http://www.quantum-espresso.org", 
     in publications or presentations arising from this work. More details at
     http://www.quantum-espresso.org/quote

     Parallel version (MPI), running on     4 processors

     MPI processes distributed on     1 nodes
     R & G space division:  proc/nbgrp/npool/nimage =       4
     Waiting for input...
     Reading input from standard input

     Current dimensions of program PWSCF are:
     Max number of different atomic species (ntypx) = 10
     Max number of k-points (npk) =  40000
     Max angular momentum in pseudopotentials (lmaxx) =  3
     file C.pbe-n-kjpaw_psl.1.0.0.UPF: wavefunction(s)  2S 2P renormalized

     IMPORTANT: XC functional enforced from input :
     Exchange-correlation= VDW-DF2-B86R
                           (   1   4  26   0   2   0   0)
     Any further DFT definition will be discarded
     Please, verify this is what you really want


     Subspace diagonalization in iterative solution of the eigenvalue problem:
     one sub-group per band group will be used
     scalapack distributed-memory algorithm (size of sub-group:  2*  2 procs)

     Message from routine setup:
     using ibrav=0 with symmetry is DISCOURAGED, use correct ibrav instead

     Parallelization info
     --------------------
     sticks:   dense  smooth     PW     G-vecs:    dense   smooth      PW
     Min         411     205     63                11414     4049     661
     Max         414     206     64                11415     4050     662
     Sum        1651     823    253                45659    16199    2645



     bravais-lattice index     =            0
     lattice parameter (alat)  =       8.1389  a.u.
     unit-cell volume          =     395.6372 (a.u.)^3
     number of atoms/cell      =            7
     number of atomic types    =            2
     number of electrons       =        27.00
     number of Kohn-Sham states=           18
     kinetic-energy cutoff     =      45.0000  Ry
     charge density cutoff     =     360.0000  Ry
     scf convergence threshold =      1.0E-06
     mixing beta               =       0.7000
     number of iterations used =            8  plain     mixing
     energy convergence thresh.=      1.0E-04
     force convergence thresh. =      1.0E-03
     press convergence thresh. =      5.0E-01
     Exchange-correlation= VDW-DF2-B86R
                           (   1   4  26   0   2   0   0)
     nstep                     =           50


     celldm(1)=   8.138922  celldm(2)=   0.000000  celldm(3)=   0.000000
     celldm(4)=   0.000000  celldm(5)=   0.000000  celldm(6)=   0.000000

     crystal axes: (cart. coord. in units of alat)
               a(1) = (   1.000000   0.000000   0.000000 )  
               a(2) = (  -0.500000   0.866026   0.000000 )  
               a(3) = (   0.000000   0.000000   0.847356 )  

     reciprocal axes: (cart. coord. in units 2 pi/alat)
               b(1) = (  1.000000  0.577350 -0.000000 )  
               b(2) = (  0.000000  1.154700  0.000000 )  
               b(3) = (  0.000000 -0.000000  1.180142 )  


     PseudoPot. # 1 for Li read from file:
     /home/zinnia7/espresso/pseudo/li_pbe_v1.4.uspp.F.UPF
     MD5 check sum: e912e257baa3777c20ea3d68f190483c
     Pseudo is Ultrasoft, Zval =  3.0
     Generated by new atomic code, or converted to UPF format
     Using radial grid of  751 points,  5 beta functions with: 
                l(1) =   0
                l(2) =   0
                l(3) =   0
                l(4) =   1
                l(5) =   1
     Q(r) pseudized with 10 coefficients,  rinner =    1.150   1.150   1.150


     PseudoPot. # 2 for C  read from file:
     /home/zinnia7/espresso/pseudo/C.pbe-n-kjpaw_psl.1.0.0.UPF
     MD5 check sum: 5d2aebdfa2cae82b50a7e79e9516da0f
     Pseudo is Projector augmented-wave + core cor, Zval =  4.0
     Generated using "atomic" code by A. Dal Corso  v.5.1
     Shape of augmentation charge: PSQ
     Using radial grid of 1073 points,  4 beta functions with: 
                l(1) =   0
                l(2) =   0
                l(3) =   1
                l(4) =   1
     Q(r) pseudized with 0 coefficients 


     atomic species   valence    mass     pseudopotential
        Li             3.00     6.94000     Li( 1.00)
        C              4.00    12.01100     C ( 1.00)

     24 Sym. Ops., with inversion, found



   Cartesian axes

     site n.     atom                  positions (alat units)
         1           Li  tau(   1) = (   0.0000000   0.0000000   0.0000000  )
         2           C   tau(   2) = (  -0.1668062   0.2889168   0.4236779  )
         3           C   tau(   3) = (   0.3331938   0.5771087   0.4236779  )
         4           C   tau(   4) = (   0.3336124   0.0000000   0.4236779  )
         5           C   tau(   5) = (  -0.3331938   0.5771087   0.4236779  )
         6           C   tau(   6) = (   0.1668062   0.2889168   0.4236779  )
         7           C   tau(   7) = (   0.6663876   0.0000000   0.4236779  )

     number of k points=    40  Gaussian smearing, width (Ry)=  0.0100
                       cart. coord. in units 2pi/alat
        k(    1) = (   0.0000000   0.0000000   0.0000000), wk =   0.0045351
        k(    2) = (   0.0000000   0.0000000   0.1311269), wk =   0.0090703
        k(    3) = (   0.0000000   0.0000000   0.2622537), wk =   0.0090703
        k(    4) = (   0.0000000   0.0000000   0.3933806), wk =   0.0090703
        k(    5) = (   0.0000000   0.0000000   0.5245074), wk =   0.0090703
        k(    6) = (   0.0000000   0.1649572   0.0000000), wk =   0.0272109
        k(    7) = (   0.0000000   0.1649572   0.1311269), wk =   0.0544218
        k(    8) = (   0.0000000   0.1649572   0.2622537), wk =   0.0544218
        k(    9) = (   0.0000000   0.1649572   0.3933806), wk =   0.0544218
        k(   10) = (   0.0000000   0.1649572   0.5245074), wk =   0.0544218
        k(   11) = (   0.0000000   0.3299144   0.0000000), wk =   0.0272109
        k(   12) = (   0.0000000   0.3299144   0.1311269), wk =   0.0544218
        k(   13) = (   0.0000000   0.3299144   0.2622537), wk =   0.0544218
        k(   14) = (   0.0000000   0.3299144   0.3933806), wk =   0.0544218
        k(   15) = (   0.0000000   0.3299144   0.5245074), wk =   0.0544218
        k(   16) = (   0.0000000   0.4948716   0.0000000), wk =   0.0272109
        k(   17) = (   0.0000000   0.4948716   0.1311269), wk =   0.0544218
        k(   18) = (   0.0000000   0.4948716   0.2622537), wk =   0.0544218
        k(   19) = (   0.0000000   0.4948716   0.3933806), wk =   0.0544218
        k(   20) = (   0.0000000   0.4948716   0.5245074), wk =   0.0544218
        k(   21) = (   0.1428571   0.2474358   0.0000000), wk =   0.0272109
        k(   22) = (   0.1428571   0.2474358   0.1311269), wk =   0.0544218
        k(   23) = (   0.1428571   0.2474358   0.2622537), wk =   0.0544218
        k(   24) = (   0.1428571   0.2474358   0.3933806), wk =   0.0544218
        k(   25) = (   0.1428571   0.2474358   0.5245074), wk =   0.0544218
        k(   26) = (   0.1428571   0.4123930   0.0000000), wk =   0.0544218
        k(   27) = (   0.1428571   0.4123930   0.1311269), wk =   0.1088435
        k(   28) = (   0.1428571   0.4123930   0.2622537), wk =   0.1088435
        k(   29) = (   0.1428571   0.4123930   0.3933806), wk =   0.1088435
        k(   30) = (   0.1428571   0.4123930   0.5245074), wk =   0.1088435
        k(   31) = (   0.1428571   0.5773502   0.0000000), wk =   0.0272109
        k(   32) = (   0.1428571   0.5773502   0.1311269), wk =   0.0544218
        k(   33) = (   0.1428571   0.5773502   0.2622537), wk =   0.0544218
        k(   34) = (   0.1428571   0.5773502   0.3933806), wk =   0.0544218
        k(   35) = (   0.1428571   0.5773502   0.5245074), wk =   0.0544218
        k(   36) = (   0.2857143   0.4948716   0.0000000), wk =   0.0272109
        k(   37) = (   0.2857143   0.4948716   0.1311269), wk =   0.0544218
        k(   38) = (   0.2857143   0.4948716   0.2622537), wk =   0.0544218
        k(   39) = (   0.2857143   0.4948716   0.3933806), wk =   0.0544218
        k(   40) = (   0.2857143   0.4948716   0.5245074), wk =   0.0544218

     Dense  grid:    45659 G-vectors     FFT dimensions: (  50,  50,  45)

     Smooth grid:    16199 G-vectors     FFT dimensions: (  36,  36,  30)

     Estimated max dynamical RAM per process >      27.76 MB

     Estimated total dynamical RAM >     111.04 MB

     Check: negative core charge=   -0.000011

     Initial potential from superposition of free atoms

     starting charge   26.54901, renormalised to   27.00000


     %%%%%%%%%%%%%%%%%%%%%%%%%%%%%%%%%%%%%%%%%%%%%%%%%%%%%%%%%%%%%%%%%%%%%%%%
     %                                                                      %
     % You are using vdW-DF, which was implemented by the Thonhauser group. %
     % Please cite the following two papers that made this development      %
     % possible and the two reviews that describe the various versions:     %
     %                                                                      %
     %   T. Thonhauser et al., PRL 115, 136402 (2015).                      %
     %   T. Thonhauser et al., PRB 76, 125112 (2007).                       %
     %   K. Berland et al., Rep. Prog. Phys. 78, 066501 (2015).             %
     %   D.C. Langreth et al., J. Phys.: Condens. Matter 21, 084203 (2009). %
     %                                                                      %
     %                                                                      %
     % If you are calculating the stress with vdW-DF, please also cite:     %
     %                                                                      %
     %   R. Sabatini et al., J. Phys.: Condens. Matter 24, 424209 (2012).   %
     %                                                                      %
     %%%%%%%%%%%%%%%%%%%%%%%%%%%%%%%%%%%%%%%%%%%%%%%%%%%%%%%%%%%%%%%%%%%%%%%%


     Starting wfcs are   29 randomized atomic wfcs
     Checking if some PAW data can be deallocated... 

     total cpu time spent up to now is       79.1 secs

     Self-consistent Calculation

     iteration #  1     ecut=    45.00 Ry     beta= 0.70
     Davidson diagonalization with overlap
     ethr =  1.00E-02,  avg # of iterations =  2.3

     total cpu time spent up to now is       82.1 secs

     total energy              =    -124.85195793 Ry
     estimated scf accuracy    <       0.42441308 Ry

     iteration #  2     ecut=    45.00 Ry     beta= 0.70
     Davidson diagonalization with overlap
     ethr =  1.57E-03,  avg # of iterations =  2.1

     total cpu time spent up to now is       84.7 secs

     total energy              =    -124.92744581 Ry
     estimated scf accuracy    <       0.00907116 Ry

     iteration #  3     ecut=    45.00 Ry     beta= 0.70
     Davidson diagonalization with overlap
     c_bands:  1 eigenvalues not converged
     ethr =  3.36E-05,  avg # of iterations =  8.8

     total cpu time spent up to now is       88.7 secs

     total energy              =    -124.92992229 Ry
     estimated scf accuracy    <       0.00126828 Ry

     iteration #  4     ecut=    45.00 Ry     beta= 0.70
     Davidson diagonalization with overlap
     ethr =  4.70E-06,  avg # of iterations =  5.3

     total cpu time spent up to now is       92.5 secs

     total energy              =    -124.93007167 Ry
     estimated scf accuracy    <       0.00012546 Ry

     iteration #  5     ecut=    45.00 Ry     beta= 0.70
     Davidson diagonalization with overlap
     ethr =  4.65E-07,  avg # of iterations =  2.9

     total cpu time spent up to now is       95.3 secs

     total energy              =    -124.93009298 Ry
     estimated scf accuracy    <       0.00000202 Ry

     iteration #  6     ecut=    45.00 Ry     beta= 0.70
     Davidson diagonalization with overlap
     ethr =  7.49E-09,  avg # of iterations =  4.3

     total cpu time spent up to now is       98.8 secs

     End of self-consistent calculation

          k = 0.0000 0.0000 0.0000 (  2025 PWs)   bands (ev):

   -38.8543 -12.1489  -5.4776  -5.4776  -5.1629  -5.1629  -3.3091  -3.0351
    -0.0421   4.2455   4.2455   7.2396   7.2396   7.5880   7.5880  10.0007
    15.0524  15.0525

          k = 0.0000 0.0000 0.1311 (  2007 PWs)   bands (ev):

   -38.8541 -12.1358  -5.4606  -5.4606  -5.1501  -5.1501  -3.3154  -3.0261
    -0.2000   4.2479   4.2479   7.0397   7.0397   7.4559   7.4559  10.4249
    15.1874  15.1874

          k = 0.0000 0.0000 0.2623 (  2019 PWs)   bands (ev):

   -38.8535 -12.1024  -5.4170  -5.4170  -5.1174  -5.1173  -3.3302  -3.0032
    -0.5710   4.2536   4.2536   6.5853   6.5853   7.1420   7.1420  11.5757
    15.3284  15.3285

          k = 0.0000 0.0000 0.3934 (  2013 PWs)   bands (ev):

   -38.8529 -12.0637  -5.3663  -5.3663  -5.0794  -5.0794  -3.3443  -2.9768
    -0.9542   4.2604   4.2604   6.1337   6.1337   6.8143   6.8143  13.1648
    15.3975  15.3975

          k = 0.0000 0.0000 0.5245 (  2006 PWs)   bands (ev):

   -38.8525 -12.0380  -5.3325  -5.3325  -5.0543  -5.0543  -3.3515  -2.9595
    -1.1880   4.2648   4.2648   5.8660   5.8660   6.6140   6.6140  14.6549
    15.4298  15.4298

          k = 0.0000 0.1650 0.0000 (  2025 PWs)   bands (ev):

   -38.8543 -11.9909  -6.7523  -6.1573  -5.1639  -4.2189  -2.5590  -2.1410
     0.1441   3.6195   3.9009   5.9324   6.2860   8.4497   8.8772  10.1339
    14.9312  15.1567

          k = 0.0000 0.1650 0.1311 (  2031 PWs)   bands (ev):

   -38.8541 -11.9778  -6.7380  -6.1407  -5.1538  -4.2060  -2.5586  -2.1338
    -0.0144   3.6227   3.9035   5.7547   6.1088   8.2917   8.7255  10.5748
    15.1878  15.4994

          k = 0.0000 0.1650 0.2623 (  2028 PWs)   bands (ev):

   -38.8535 -11.9444  -6.7013  -6.0982  -5.1279  -4.1730  -2.5563  -2.1151
    -0.3867   3.6310   3.9103   5.3462   5.6971   7.9329   8.3759  11.7508
    15.4052  15.9110

          k = 0.0000 0.1650 0.3934 (  2020 PWs)   bands (ev):

   -38.8529 -11.9057  -6.6585  -6.0486  -5.0977  -4.1347  -2.5515  -2.0931
    -0.7714   3.6404   3.9181   4.9345   5.2787   7.5707   8.0219  13.3601
    15.4768  16.0119

          k = 0.0000 0.1650 0.5245 (  2004 PWs)   bands (ev):

   -38.8524 -11.8800  -6.6300  -6.0156  -5.0777  -4.1094  -2.5466  -2.0783
    -1.0060   3.6467   3.9233   4.6878   5.0271   7.3530   7.8094  14.8755
    15.5130  16.0476

          k = 0.0000 0.3299 0.0000 (  2023 PWs)   bands (ev):

   -38.8542 -11.5187  -8.3016  -6.7036  -5.5811  -2.8866  -1.2992  -0.4740
     0.6964   2.1441   2.9566   4.3427   5.5364   8.9226  10.5313  10.6153
    13.9367  14.8568

          k = 0.0000 0.3299 0.1311 (  2022 PWs)   bands (ev):

   -38.8540 -11.5056  -8.2876  -6.6862  -5.5733  -2.8755  -1.2954  -0.4684
     0.5368   2.1492   2.9604   4.1635   5.3576   8.7586  10.4740  10.9989
    14.3341  15.2849

          k = 0.0000 0.3299 0.2623 (  2028 PWs)   bands (ev):

   -38.8534 -11.4723  -8.2517  -6.6414  -5.5529  -2.8469  -1.2850  -0.4541
     0.1613   2.1622   2.9697   3.7556   4.9427   8.3990  10.1492  12.2175
    15.3633  15.8215

          k = 0.0000 0.3299 0.3934 (  2011 PWs)   bands (ev):

   -38.8528 -11.4338  -8.2096  -6.5893  -5.5290  -2.8139  -1.2714  -0.4374
    -0.2268   2.1772   2.9799   3.3480   4.5211   8.0434   9.8199  13.8528
    15.7912  16.0972

          k = 0.0000 0.3299 0.5245 (  2010 PWs)   bands (ev):

   -38.8524 -11.4083  -8.1815  -6.5545  -5.5129  -2.7922  -1.2611  -0.4648
    -0.4248   2.1872   2.9866   3.1048   4.2676   7.8316   9.6216  15.3669
    15.8091  16.0001

          k = 0.0000 0.4949 0.0000 (  2019 PWs)   bands (ev):

   -38.8542 -10.7400  -9.6494  -6.9790  -5.8363  -1.3285   0.1335   0.3932
     0.7440   1.5822   1.6342   2.8870   5.1572   9.0633  11.0954  12.5730
    12.8606  14.6140

          k = 0.0000 0.4949 0.1311 (  2020 PWs)   bands (ev):

   -38.8539 -10.7275  -9.6348  -6.9611  -5.8291  -1.3192   0.1381   0.4003
     0.7484   1.4227   1.6446   2.7007   4.9771   8.8985  11.5733  12.4475
    13.2733  14.4926

          k = 0.0000 0.4949 0.2623 (  2022 PWs)   bands (ev):

   -38.8534 -10.6957  -9.5973  -6.9151  -5.8106  -1.2957   0.1503   0.4186
     0.7596   1.0542   1.6541   2.2855   4.5593   8.5367  12.1635  12.8188
    14.2758  14.3737

          k = 0.0000 0.4949 0.3934 (  2017 PWs)   bands (ev):

   -38.8527 -10.6594  -9.5529  -6.8615  -5.7887  -1.2687   0.1661   0.4396
     0.6625   0.7739   1.6637   1.8815   4.1348   8.1852  11.8756  14.0486
    14.4396  14.5448

          k = 0.0000 0.4949 0.5245 (  2016 PWs)   bands (ev):

   -38.8523 -10.6358  -9.5229  -6.8256  -5.7739  -1.2508   0.1780   0.4216
     0.4535   0.7819   1.6437   1.6705   3.8796   7.9789  11.7014  13.9088
    14.5533  15.8610

          k = 0.1429 0.2474 0.0000 (  2019 PWs)   bands (ev):

   -38.8543 -11.6757  -7.5074  -7.3694  -4.3310  -4.2120  -1.3089  -1.0710
     0.5135   2.4881   3.3740   5.0913   5.2489   9.5314   9.5475  10.4007
    14.4457  14.6415

          k = 0.1429 0.2474 0.1311 (  2027 PWs)   bands (ev):

   -38.8540 -11.6627  -7.4952  -7.3526  -4.3174  -4.2045  -1.3058  -1.0640
     0.3540   2.4930   3.3770   4.9190   5.0634   9.3751   9.3932  10.8664
    14.8619  14.9984

          k = 0.1429 0.2474 0.2623 (  2013 PWs)   bands (ev):

   -38.8535 -11.6293  -7.4638  -7.3094  -4.2823  -4.1851  -1.2969  -1.0461
    -0.0206   2.5052   3.3848   4.5262   4.6353   8.9793   9.0961  12.0739
    15.3388  15.9053

          k = 0.1429 0.2474 0.3934 (  2011 PWs)   bands (ev):

   -38.8528 -11.5907  -7.4269  -7.2592  -4.2418  -4.1623  -1.2846  -1.0255
    -0.4078   2.5188   3.3938   4.1327   4.2025   8.5814   8.7961  13.7035
    15.3913  16.5631

          k = 0.1429 0.2474 0.5245 (  2009 PWs)   bands (ev):

   -38.8524 -11.5651  -7.4022  -7.2257  -4.2148  -4.1468  -1.2746  -1.0120
    -0.6440   2.5278   3.3999   3.8975   3.9430   8.3439   8.6143  15.2214
    15.4257  16.4786

          k = 0.1429 0.4124 0.0000 (  2027 PWs)   bands (ev):

   -38.8542 -11.0495  -8.8969  -7.8629  -4.5778  -2.7802  -0.0090   0.3784
     0.7672   1.2369   2.4678   3.6827   4.6649   9.8248  10.9168  11.2965
    13.2910  14.2254

          k = 0.1429 0.4124 0.1311 (  2012 PWs)   bands (ev):

   -38.8540 -11.0365  -8.8831  -7.8476  -4.5678  -2.7707  -0.0040   0.3835
     0.7716   1.0800   2.4717   3.5040   4.4815   9.6663  11.1399  11.4114
    13.7148  14.5851

          k = 0.1429 0.4124 0.2623 (  2016 PWs)   bands (ev):

   -38.8534 -11.0036  -8.8474  -7.8084  -4.5421  -2.7462   0.0089   0.3963
     0.6885   0.8030   2.4813   3.0981   4.0620   9.3151  10.8383  12.6312
    14.8256  14.9446

          k = 0.1429 0.4124 0.3934 (  2010 PWs)   bands (ev):

   -38.8527 -10.9657  -8.8056  -7.7624  -4.5120  -2.7176   0.0247   0.3082
     0.4112   0.8105   2.4920   2.6928   3.6425   8.9623  10.5269  14.2483
    14.7526  15.2210

          k = 0.1429 0.4124 0.5245 (  2012 PWs)   bands (ev):

   -38.8523 -10.9408  -8.7776  -7.7316  -4.4918  -2.6984   0.0357   0.0709
     0.4210   0.8212   2.4502   2.4996   3.3930   8.7504  10.3409  14.6103
    15.2058  15.4508

          k = 0.1429 0.5774 0.0000 (  2012 PWs)   bands (ev):

   -38.8542 -10.1931 -10.0376  -8.0094  -4.6931  -1.0803  -1.0519   0.9969
     1.3062   1.3113   2.1052   2.5400   4.4838   9.8879  11.3754  12.5649
    13.2791  13.2908

          k = 0.1429 0.5774 0.1311 (  2015 PWs)   bands (ev):

   -38.8539 -10.1861 -10.0178  -7.9942  -4.6834  -1.0711  -1.0448   1.0017
     1.3085   1.3158   1.9865   2.3217   4.3002   9.7302  11.8511  12.9889
    13.1641  13.1743

          k = 0.1429 0.5774 0.2623 (  2015 PWs)   bands (ev):

   -38.8534 -10.1683  -9.9666  -7.9551  -4.6581  -1.0475  -1.0262   1.0139
     1.3141   1.3270   1.7017   1.8271   3.8807   9.3775  12.8514  12.9059
    13.1315  14.1247

          k = 0.1429 0.5774 0.3934 (  2025 PWs)   bands (ev):

   -38.8527 -10.1480  -9.9069  -7.9093  -4.6285  -1.0202  -1.0040   1.0275
     1.3139   1.3147   1.3617   1.4067   3.4611   9.0284  12.5895  12.6467
    14.3575  14.7027

          k = 0.1429 0.5774 0.5245 (  2027 PWs)   bands (ev):

   -38.8523 -10.1347  -9.8670  -7.8786  -4.6086  -1.0021  -0.9889   1.0289
     1.0495   1.2009   1.3373   1.3521   3.2116   8.8214  12.4151  12.4916
    14.3718  15.6344

          k = 0.2857 0.4949 0.0000 (  2017 PWs)   bands (ev):

   -38.8541 -10.2782  -9.2600  -9.1182  -2.9760  -2.8806  -1.0847   1.1321
     1.2630   1.9263   2.0889   3.2336   3.4988  11.5062  11.5346  11.5912
    12.4754  13.4881

          k = 0.2857 0.4949 0.1311 (  2010 PWs)   bands (ev):

   -38.8539 -10.2662  -9.2491  -9.0995  -2.9639  -2.8739  -1.0768   1.1366
     1.2669   1.9301   1.9416   3.0647   3.2921  11.3883  11.4194  12.0161
    12.9282  13.3721

          k = 0.2857 0.4949 0.2623 (  2005 PWs)   bands (ev):

   -38.8534 -10.2359  -9.2204  -9.0513  -2.9329  -2.8565  -1.0564   1.1484
     1.2768   1.5788   1.9397   2.6955   2.8203  11.0274  11.1454  13.0794
    13.2557  14.0735

          k = 0.2857 0.4949 0.3934 (  2013 PWs)   bands (ev):

   -38.8527 -10.2018  -9.1859  -8.9951  -2.8970  -2.8357  -1.0321   1.1609
     1.1869   1.2881   1.9508   2.3448   2.3490  10.6343  10.8931  12.8283
    14.6211  14.6707

          k = 0.2857 0.4949 0.5245 (  2012 PWs)   bands (ev):

   -38.8523 -10.1797  -9.1622  -8.9575  -2.8732  -2.8216  -1.0155   0.9390
     1.1729   1.2955   1.9586   2.0681   2.1419  10.4001  10.7389  12.6675
    14.5865  14.9792

     the Fermi energy is     8.6653 ev

!    total energy              =    -124.93009455 Ry
     estimated scf accuracy    <       0.00000017 Ry
     smearing contrib. (-TS)   =      -0.00086533 Ry
     internal energy E=F+TS    =    -124.92922922 Ry

     The total energy is F=E-TS. E is the sum of the following terms:
     one-electron contribution =     -22.66793685 Ry
     hartree contribution      =      23.91842384 Ry
     xc contribution           =     -31.60296858 Ry
     ewald contribution        =     -57.93375594 Ry
     one-center paw contrib.   =     -36.64299168 Ry

     convergence has been achieved in   6 iterations

     Forces acting on atoms (cartesian axes, Ry/au):

     atom    1 type  1   force =     0.00000000   -0.00000000    0.00000000
     atom    2 type  2   force =    -0.00039519    0.00068449    0.00000000
     atom    3 type  2   force =    -0.00039519   -0.00068449   -0.00000000
     atom    4 type  2   force =     0.00079038    0.00000000   -0.00000000
     atom    5 type  2   force =     0.00039519   -0.00068449   -0.00000000
     atom    6 type  2   force =     0.00039519    0.00068449    0.00000000
     atom    7 type  2   force =    -0.00079038    0.00000000    0.00000000

     Total force =     0.001936     Total SCF correction =     0.000033


     Computing stress (Cartesian axis) and pressure

          total   stress  (Ry/bohr**3)                   (kbar)     P=       24.15
   0.00025537   0.00000000   0.00000000           37.57        0.00        0.00
   0.00000000   0.00025537   0.00000000            0.00       37.57        0.00
   0.00000000   0.00000000  -0.00001828            0.00        0.00       -2.69


     BFGS Geometry Optimization
     Energy error            =      0.0E+00
     Gradient error          =      7.9E-04
     Cell gradient error     =      2.6E-04


     number of scf cycles    =   1
     number of bfgs steps    =   0

     enthalpy new            =    -124.9300945515 Ry

     new trust radius        =       0.0253975541 bohr
     new conv_thr            =       0.0000010000 Ry

     new unit-cell volume =    400.52194 a.u.^3 (    59.35123 Ang^3 )
     density =      2.21044 g/cm^3

CELL_PARAMETERS (angstrom)
   4.334428748   0.000000000   0.000000000
  -2.167214374   3.753725879   0.000000000
   0.000000000   0.000000000   3.647835828

ATOMIC_POSITIONS (angstrom)
Li            0.0000000000       -0.0000000000        0.0000000000
C            -0.7232200901        1.2526538008        1.8239179142
C             1.4439942840        2.5010720786        1.8239179142
C             1.4464401802        0.0000000000        1.8239179142
C            -1.4439942840        2.5010720786        1.8239179142
C             0.7232200901        1.2526538008        1.8239179142
C             2.8879885681        0.0000000000        1.8239179142



     Writing output data file ./LiC6.save/
     NEW-OLD atomic charge density approx. for the potential

     Check: negative core charge=   -0.000011
     extrapolated charge   27.32379, renormalised to   27.00000

     total cpu time spent up to now is      104.8 secs

     Self-consistent Calculation

     iteration #  1     ecut=    45.00 Ry     beta= 0.70
     Davidson diagonalization with overlap
     ethr =  1.00E-06,  avg # of iterations =  7.3

     total cpu time spent up to now is      109.4 secs

     total energy              =    -124.92577257 Ry
     estimated scf accuracy    <       0.00311096 Ry

     iteration #  2     ecut=    45.00 Ry     beta= 0.70
     Davidson diagonalization with overlap
     ethr =  1.15E-05,  avg # of iterations =  5.6

     total cpu time spent up to now is      113.0 secs

     total energy              =    -124.93027233 Ry
     estimated scf accuracy    <       0.00289006 Ry

     iteration #  3     ecut=    45.00 Ry     beta= 0.70
     Davidson diagonalization with overlap
     ethr =  1.07E-05,  avg # of iterations =  1.4

     total cpu time spent up to now is      115.2 secs

     total energy              =    -124.93011686 Ry
     estimated scf accuracy    <       0.00059244 Ry

     iteration #  4     ecut=    45.00 Ry     beta= 0.70
     Davidson diagonalization with overlap
     ethr =  2.19E-06,  avg # of iterations =  4.8

     total cpu time spent up to now is      117.9 secs

     total energy              =    -124.93017947 Ry
     estimated scf accuracy    <       0.00003556 Ry

     iteration #  5     ecut=    45.00 Ry     beta= 0.70
     Davidson diagonalization with overlap
     ethr =  1.32E-07,  avg # of iterations =  2.8

     total cpu time spent up to now is      120.7 secs

     total energy              =    -124.93018845 Ry
     estimated scf accuracy    <       0.00000150 Ry

     iteration #  6     ecut=    45.00 Ry     beta= 0.70
     Davidson diagonalization with overlap
     ethr =  5.57E-09,  avg # of iterations =  2.7

     total cpu time spent up to now is      123.2 secs

     total energy              =    -124.93018732 Ry
     estimated scf accuracy    <       0.00000205 Ry

     iteration #  7     ecut=    45.00 Ry     beta= 0.70
     Davidson diagonalization with overlap
     ethr =  5.57E-09,  avg # of iterations =  2.0

     total cpu time spent up to now is      125.9 secs

     End of self-consistent calculation

          k = 0.0000 0.0000 0.0000 (  2025 PWs)   bands (ev):

   -38.9620 -12.1457  -5.5643  -5.5642  -5.2583  -5.2583  -3.3207  -3.0477
    -0.0488   4.0925   4.0925   7.1095   7.1096   7.4444   7.4444   9.9370
    14.8124  14.8124

          k =-0.0000-0.0000 0.1312 (  2007 PWs)   bands (ev):

   -38.9617 -12.1322  -5.5470  -5.5470  -5.2452  -5.2452  -3.3269  -3.0385
    -0.2096   4.0950   4.0950   6.9082   6.9082   7.3110   7.3111  10.3639
    14.9293  14.9293

          k =-0.0000-0.0000 0.2624 (  2019 PWs)   bands (ev):

   -38.9612 -12.0979  -5.5027  -5.5027  -5.2119  -5.2118  -3.3414  -3.0149
    -0.5867   4.1010   4.1010   6.4509   6.4509   6.9944   6.9944  11.5202
    15.0583  15.0583

          k =-0.0000-0.0000 0.3936 (  2013 PWs)   bands (ev):

   -38.9605 -12.0581  -5.4511  -5.4511  -5.1732  -5.1732  -3.3552  -2.9878
    -0.9757   4.1081   4.1081   5.9966   5.9966   6.6641   6.6641  13.1117
    15.1264  15.1264

          k =-0.0000-0.0000 0.5247 (  2006 PWs)   bands (ev):

   -38.9601 -12.0316  -5.4167  -5.4167  -5.1476  -5.1476  -3.3623  -2.9700
    -1.2127   4.1127   4.1127   5.7273   5.7273   6.4622   6.4622  14.5944
    15.1590  15.1590

          k =-0.0000 0.1639 0.0000 (  2025 PWs)   bands (ev):

   -38.9619 -11.9894  -6.8175  -6.2426  -5.2248  -4.3174  -2.5942  -2.1898
     0.1345   3.4702   3.7546   5.8230   6.1684   8.2986   8.7149  10.0688
    14.7419  14.9768

          k =-0.0000 0.1639 0.1312 (  2031 PWs)   bands (ev):

   -38.9617 -11.9760  -6.8029  -6.2257  -5.2143  -4.3042  -2.5937  -2.1824
    -0.0269   3.4735   3.7574   5.6438   5.9897   8.1396   8.5620  10.5117
    14.9583  15.2911

          k =-0.0000 0.1639 0.2624 (  2028 PWs)   bands (ev):

   -38.9612 -11.9417  -6.7653  -6.1826  -5.1874  -4.2705  -2.5916  -2.1631
    -0.4054   3.4821   3.7644   5.2321   5.5751   7.7783   8.2099  11.6923
    15.1353  15.6323

          k =-0.0000 0.1639 0.3936 (  2020 PWs)   bands (ev):

   -38.9605 -11.9019  -6.7214  -6.1323  -5.1562  -4.2315  -2.5871  -2.1404
    -0.7957   3.4919   3.7725   4.8170   5.1537   7.4135   7.8535  13.3039
    15.2038  15.7259

          k =-0.0000 0.1639 0.5247 (  2004 PWs)   bands (ev):

   -38.9601 -11.8754  -6.6922  -6.0987  -5.1354  -4.2056  -2.5823  -2.1252
    -1.0334   3.4984   3.7779   4.5685   4.9005   7.1943   7.6396  14.8125
    15.2402  15.7617

          k =-0.0000 0.3278 0.0000 (  2023 PWs)   bands (ev):

   -38.9619 -11.5225  -8.3443  -6.7858  -5.6198  -2.9935  -1.3573  -0.5542
     0.6780   2.0040   2.8280   4.2622   5.4307   8.7725  10.4222  10.4623
    13.8114  14.7137

          k =-0.0000 0.3278 0.1312 (  2022 PWs)   bands (ev):

   -38.9617 -11.5091  -8.3300  -6.7681  -5.6117  -2.9821  -1.3534  -0.5484
     0.5155   2.0093   2.8319   4.0812   5.2503   8.6083  10.2802  10.9306
    14.2089  15.1404

          k =-0.0000 0.3278 0.2624 (  2028 PWs)   bands (ev):

   -38.9611 -11.4749  -8.2932  -6.7228  -5.5905  -2.9529  -1.3428  -0.5336
     0.1341   2.0228   2.8414   3.6693   4.8321   8.2464   9.9535  12.1521
    15.2203  15.5568

          k =-0.0000 0.3278 0.3936 (  2011 PWs)   bands (ev):

   -38.9604 -11.4352  -8.2501  -6.6699  -5.5657  -2.9191  -1.3290  -0.5164
    -0.2595   2.0383   2.8520   3.2578   4.4075   7.8880   9.6222  13.7881
    15.5115  15.7800

          k =-0.0000 0.3278 0.5247 (  2010 PWs)   bands (ev):

   -38.9600 -11.4090  -8.2213  -6.6346  -5.5491  -2.8968  -1.3186  -0.5071
    -0.4969   2.0486   2.8589   3.0123   4.1522   7.6744   9.4227  15.2934
    15.5300  15.6814

          k =-0.0000 0.4917 0.0000 (  2019 PWs)   bands (ev):

   -38.9618 -10.7526  -9.6753  -7.0596  -5.8671  -1.4456   0.0515   0.2647
     0.6508   1.5289   1.5494   2.8319   5.0575   8.9173  11.0214  12.3428
    12.7520  14.3404

          k =-0.0000 0.4917 0.1312 (  2020 PWs)   bands (ev):

   -38.9616 -10.7397  -9.6605  -7.0415  -5.8596  -1.4361   0.0562   0.2721
     0.6554   1.3848   1.5418   2.6436   4.8758   8.7522  11.5000  12.2171
    13.1654  14.2255

          k =-0.0000 0.4917 0.2624 (  2022 PWs)   bands (ev):

   -38.9610 -10.7069  -9.6222  -6.9948  -5.8404  -1.4120   0.0688   0.2910
     0.6670   1.0124   1.5495   2.2240   4.4546   8.3882  11.9317  12.7465
    14.0037  14.1510

          k =-0.0000 0.4917 0.3936 (  2017 PWs)   bands (ev):

   -38.9604 -10.6695  -9.5769  -6.9405  -5.8177  -1.3841   0.0849   0.3126
     0.6154   0.6824   1.5591   1.8156   4.0270   8.0338  11.6422  13.7745
    14.2010  14.3777

          k =-0.0000 0.4917 0.5247 (  2016 PWs)   bands (ev):

   -38.9600 -10.6450  -9.5462  -6.9042  -5.8023  -1.3657   0.0970   0.3269
     0.3723   0.6901   1.5652   1.5761   3.7700   7.8255  11.4671  13.6338
    14.2231  15.7794

          k = 0.1420 0.2459 0.0000 (  2019 PWs)   bands (ev):

   -38.9619 -11.6778  -7.5606  -7.4286  -4.4049  -4.2919  -1.3783  -1.1396
     0.4979   2.3476   3.2375   4.9972   5.1501   9.3616   9.3791  10.3329
    14.3151  14.4858

          k = 0.1420 0.2459 0.1312 (  2027 PWs)   bands (ev):

   -38.9617 -11.6644  -7.5480  -7.4115  -4.3910  -4.2841  -1.3752  -1.1324
     0.3357   2.3526   3.2406   4.8231   4.9633   9.2062   9.2234  10.7989
    14.7309  14.8150

          k = 0.1420 0.2459 0.2624 (  2013 PWs)   bands (ev):

   -38.9611 -11.6300  -7.5155  -7.3676  -4.3553  -4.2641  -1.3663  -1.1140
    -0.0450   2.3652   3.2487   4.4263   4.5321   8.8091   8.9229  12.0099
    15.0536  15.7698

          k = 0.1420 0.2459 0.3936 (  2011 PWs)   bands (ev):

   -38.9605 -11.5904  -7.4774  -7.3165  -4.3139  -4.2405  -1.3540  -1.0929
    -0.4376   2.3793   3.2581   4.0287   4.0965   8.4100   8.6193  13.6407
    15.1040  16.2364

          k = 0.1420 0.2459 0.5247 (  2009 PWs)   bands (ev):

   -38.9600 -11.5640  -7.4519  -7.2825  -4.2864  -4.2246  -1.3440  -1.0790
    -0.6769   2.3886   3.2644   3.7911   3.8353   8.1716   8.4353  15.0909
    15.2010  16.1502

          k = 0.1420 0.4098 0.0000 (  2027 PWs)   bands (ev):

   -38.9618 -11.0586  -8.9321  -7.9144  -4.6430  -2.8735  -0.0959   0.2886
     0.6416   1.2096   2.3469   3.6137   4.5766   9.6585  10.8436  11.0948
    13.1803  14.0716

          k = 0.1420 0.4098 0.1312 (  2012 PWs)   bands (ev):

   -38.9616 -11.0453  -8.9179  -7.8988  -4.6329  -2.8638  -0.0908   0.2939
     0.6467   1.0495   2.3510   3.4331   4.3916   9.5001  10.9447  11.3312
    13.6043  14.4088

          k = 0.1420 0.4098 0.2624 (  2016 PWs)   bands (ev):

   -38.9610 -11.0115  -8.8814  -7.8587  -4.6067  -2.8386  -0.0775   0.3071
     0.6297   0.7011   2.3609   3.0229   3.9685   9.1469  10.6352  12.5585
    14.6608  14.7134

          k = 0.1420 0.4098 0.3936 (  2010 PWs)   bands (ev):

   -38.9604 -10.9725  -8.8386  -7.8118  -4.5760  -2.8093  -0.0613   0.2669
     0.3225   0.6863   2.3720   2.6133   3.5456   8.7918  10.3214  14.1672
    14.4697  14.8987

          k = 0.1420 0.4098 0.5247 (  2012 PWs)   bands (ev):

   -38.9600 -10.9467  -8.8099  -7.7803  -4.5554  -2.7896  -0.0497   0.0266
     0.3326   0.6970   2.3679   2.3804   3.2940   8.5785  10.1340  14.3241
    14.8862  15.1446

          k = 0.1420 0.5737 0.0000 (  2012 PWs)   bands (ev):

   -38.9618 -10.2104 -10.0607  -8.0591  -4.7555  -1.1855  -1.1659   0.8976
     1.1999   1.2138   2.0641   2.4903   4.3984   9.7238  11.2984  12.4625
    13.0394  13.0473

          k = 0.1420 0.5737 0.1312 (  2015 PWs)   bands (ev):

   -38.9616 -10.2029 -10.0406  -8.0437  -4.7456  -1.1761  -1.1585   0.9026
     1.2024   1.2184   1.9422   2.2704   4.2132   9.5659  11.7745  12.8762
    12.9242  12.9413

          k = 0.1420 0.5737 0.2624 (  2015 PWs)   bands (ev):

   -38.9610 -10.1840  -9.9888  -8.0037  -4.7199  -1.1519  -1.1393   0.9153
     1.2088   1.2301   1.6500   1.7722   3.7900   9.2114  12.6248  12.6613
    13.0405  13.9743

          k = 0.1420 0.5737 0.3936 (  2025 PWs)   bands (ev):

   -38.9604 -10.1623  -9.9283  -7.9569  -4.6898  -1.1239  -1.1165   0.9297
     1.2138   1.2338   1.2880   1.3435   3.3669   8.8600  12.3490  12.4000
    14.0301  14.6126

          k = 0.1420 0.5737 0.5247 (  2027 PWs)   bands (ev):

   -38.9600 -10.1482  -9.8878  -7.9255  -4.6696  -1.1053  -1.1010   0.9391
     0.9822   1.1391   1.2323   1.2556   3.1153   8.6514  12.1737  12.2438
    14.0448  15.3159

          k = 0.2839 0.4917 0.0000 (  2017 PWs)   bands (ev):

   -38.9618 -10.2960  -9.2896  -9.1529  -3.0590  -2.9701  -1.1915   1.0290
     1.1640   1.8154   2.0478   3.1725   3.4319  11.3048  11.3905  11.4534
    12.3793  13.2451

          k = 0.2839 0.4917 0.1312 (  2010 PWs)   bands (ev):

   -38.9616 -10.2836  -9.2784  -9.1339  -3.0467  -2.9633  -1.1833   1.0337
     1.1680   1.8194   1.8977   3.0015   3.2236  11.1887  11.2192  11.9320
    12.8307  13.1286

          k = 0.2839 0.4917 0.2624 (  2005 PWs)   bands (ev):

   -38.9610 -10.2523  -9.2488  -9.0850  -3.0151  -2.9455  -1.1623   1.0460
     1.1783   1.5290   1.8294   2.6274   2.7487  10.8274  10.9411  12.8469
    13.1574  13.9480

          k = 0.2839 0.4917 0.3936 (  2013 PWs)   bands (ev):

   -38.9604 -10.2169  -9.2133  -9.0279  -2.9785  -2.9243  -1.1374   1.0601
     1.1309   1.1900   1.8409   2.2714   2.2745  10.4343  10.6854  12.5830
    14.3090  14.4500

          k = 0.2839 0.4917 0.5247 (  2012 PWs)   bands (ev):

   -38.9600 -10.1940  -9.1890  -8.9898  -2.9542  -2.9099  -1.1204   0.8815
     1.0712   1.1977   1.8491   1.9918   2.0653  10.1998  10.5293  12.4211
    14.2712  14.6548

     the Fermi energy is     8.4980 ev

!    total energy              =    -124.93018774 Ry
     estimated scf accuracy    <          9.8E-10 Ry
     smearing contrib. (-TS)   =      -0.00086888 Ry
     internal energy E=F+TS    =    -124.92931885 Ry

     The total energy is F=E-TS. E is the sum of the following terms:
     one-electron contribution =     -22.41559271 Ry
     hartree contribution      =      23.65821387 Ry
     xc contribution           =     -31.51757947 Ry
     ewald contribution        =     -58.01494662 Ry
     one-center paw contrib.   =     -36.63941392 Ry

     convergence has been achieved in   7 iterations

     Forces acting on atoms (cartesian axes, Ry/au):

     atom    1 type  1   force =    -0.00000000    0.00000000   -0.00000000
     atom    2 type  2   force =     0.00024557   -0.00042534   -0.00000000
     atom    3 type  2   force =     0.00024557    0.00042534   -0.00000000
     atom    4 type  2   force =    -0.00049114   -0.00000000    0.00000000
     atom    5 type  2   force =    -0.00024557    0.00042534    0.00000000
     atom    6 type  2   force =    -0.00024557   -0.00042534    0.00000000
     atom    7 type  2   force =     0.00049114    0.00000000   -0.00000000

     Total force =     0.001203     Total SCF correction =     0.000030


     Computing stress (Cartesian axis) and pressure

          total   stress  (Ry/bohr**3)                   (kbar)     P=      -21.69
  -0.00021394   0.00000000   0.00000000          -31.47        0.00        0.00
   0.00000000  -0.00021394   0.00000000            0.00      -31.47        0.00
   0.00000000   0.00000000  -0.00001440            0.00        0.00       -2.12

     Energy error            =      9.3E-05
     Gradient error          =      4.9E-04
     Cell gradient error     =      2.1E-04


     number of scf cycles    =   2
     number of bfgs steps    =   1

     enthalpy old            =    -124.9300945515 Ry
     enthalpy new            =    -124.9301877371 Ry

     CASE: enthalpy_new < enthalpy_old

     new trust radius        =       0.0115903638 bohr
     new conv_thr            =       0.0000000100 Ry

     new unit-cell volume =    398.12630 a.u.^3 (    58.99623 Ang^3 )
     density =      2.22374 g/cm^3

CELL_PARAMETERS (angstrom)
   4.321877533   0.000000000   0.000000000
  -2.160938766   3.742856209   0.000000000
   0.000000000   0.000000000   3.647108392

ATOMIC_POSITIONS (angstrom)
Li            0.0000000000       -0.0000000000       -0.0000000000
C            -0.7210548897        1.2489035650        1.8235541959
C             1.4398838766        2.4939526442        1.8235541959
C             1.4421097794        0.0000000000        1.8235541959
C            -1.4398838766        2.4939526442        1.8235541959
C             0.7210548897        1.2489035650        1.8235541959
C             2.8797677532        0.0000000000        1.8235541959



     Writing output data file ./LiC6.save/
     NEW-OLD atomic charge density approx. for the potential

     Check: negative core charge=   -0.000011
     extrapolated charge   26.84025, renormalised to   27.00000

     total cpu time spent up to now is      131.5 secs

     Self-consistent Calculation

     iteration #  1     ecut=    45.00 Ry     beta= 0.70
     Davidson diagonalization with overlap
     ethr =  1.00E-06,  avg # of iterations =  4.8

     total cpu time spent up to now is      135.2 secs

     total energy              =    -124.92945117 Ry
     estimated scf accuracy    <       0.00068510 Ry

     iteration #  2     ecut=    45.00 Ry     beta= 0.70
     Davidson diagonalization with overlap
     ethr =  2.54E-06,  avg # of iterations =  6.1

     total cpu time spent up to now is      139.0 secs

     total energy              =    -124.93046137 Ry
     estimated scf accuracy    <       0.00064929 Ry

     iteration #  3     ecut=    45.00 Ry     beta= 0.70
     Davidson diagonalization with overlap
     ethr =  2.40E-06,  avg # of iterations =  1.4

     total cpu time spent up to now is      141.2 secs

     total energy              =    -124.93042973 Ry
     estimated scf accuracy    <       0.00013408 Ry

     iteration #  4     ecut=    45.00 Ry     beta= 0.70
     Davidson diagonalization with overlap
     ethr =  4.97E-07,  avg # of iterations =  2.5

     total cpu time spent up to now is      143.7 secs

     total energy              =    -124.93043931 Ry
     estimated scf accuracy    <       0.00001214 Ry

     iteration #  5     ecut=    45.00 Ry     beta= 0.70
     Davidson diagonalization with overlap
     ethr =  4.49E-08,  avg # of iterations =  3.1

     total cpu time spent up to now is      146.5 secs

     total energy              =    -124.93044256 Ry
     estimated scf accuracy    <       0.00000017 Ry

     iteration #  6     ecut=    45.00 Ry     beta= 0.70
     Davidson diagonalization with overlap
     ethr =  6.43E-10,  avg # of iterations =  4.0

     total cpu time spent up to now is      149.7 secs

     total energy              =    -124.93044238 Ry
     estimated scf accuracy    <       0.00000060 Ry

     iteration #  7     ecut=    45.00 Ry     beta= 0.70
     Davidson diagonalization with overlap
     ethr =  6.43E-10,  avg # of iterations =  2.0

     total cpu time spent up to now is      152.6 secs

     total energy              =    -124.93044236 Ry
     estimated scf accuracy    <       0.00000010 Ry

     iteration #  8     ecut=    45.00 Ry     beta= 0.70
     Davidson diagonalization with overlap
     ethr =  3.63E-10,  avg # of iterations =  2.2

     total cpu time spent up to now is      155.4 secs

     End of self-consistent calculation

          k = 0.0000 0.0000 0.0000 (  2025 PWs)   bands (ev):

   -38.9064 -12.1446  -5.5222  -5.5222  -5.2130  -5.2129  -3.3128  -3.0395
    -0.0409   4.1644   4.1644   7.1734   7.1734   7.5133   7.5133   9.9744
    14.9252  14.9252

          k =-0.0000-0.0000 0.1312 (  2007 PWs)   bands (ev):

   -38.9062 -12.1313  -5.5051  -5.5051  -5.2000  -5.2000  -3.3191  -3.0303
    -0.2007   4.1668   4.1668   6.9723   6.9723   7.3802   7.3802  10.4006
    15.0495  15.0497

          k =-0.0000-0.0000 0.2624 (  2019 PWs)   bands (ev):

   -38.9056 -12.0972  -5.4609  -5.4609  -5.1668  -5.1668  -3.3337  -3.0069
    -0.5758   4.1727   4.1727   6.5155   6.5155   7.0642   7.0642  11.5557
    15.1834  15.1834

          k =-0.0000-0.0000 0.3936 (  2013 PWs)   bands (ev):

   -38.9050 -12.0578  -5.4096  -5.4096  -5.1284  -5.1283  -3.3477  -2.9801
    -0.9629   4.1797   4.1797   6.0616   6.0616   6.7344   6.7344  13.1474
    15.2520  15.2520

          k =-0.0000-0.0000 0.5249 (  2006 PWs)   bands (ev):

   -38.9046 -12.0316  -5.3754  -5.3753  -5.1029  -5.1029  -3.3548  -2.9624
    -1.1988   4.1842   4.1842   5.7925   5.7925   6.5328   6.5328  14.6340
    15.2846  15.2846

          k =-0.0000 0.1644-0.0000 (  2025 PWs)   bands (ev):

   -38.9064 -11.9876  -6.7854  -6.2015  -5.1946  -4.2703  -2.5757  -2.1653
     0.1437   3.5404   3.8234   5.8772   6.2262   8.3714   8.7927  10.1068
    14.8355  15.0655

          k =-0.0000 0.1644 0.1312 (  2031 PWs)   bands (ev):

   -38.9062 -11.9743  -6.7709  -6.1847  -5.1843  -4.2573  -2.5752  -2.1580
    -0.0167   3.5436   3.8261   5.6983   6.0478   8.2125   8.6400  10.5493
    15.0679  15.3921

          k =-0.0000 0.1644 0.2624 (  2028 PWs)   bands (ev):

   -38.9056 -11.9402  -6.7335  -6.1417  -5.1577  -4.2238  -2.5731  -2.1389
    -0.3931   3.5521   3.8331   5.2872   5.6338   7.8516   8.2883  11.7292
    15.2605  15.7617

          k =-0.0000 0.1644 0.3936 (  2020 PWs)   bands (ev):

   -38.9050 -11.9008  -6.6901  -6.0916  -5.1269  -4.1850  -2.5684  -2.1165
    -0.7816   3.5618   3.8411   4.8729   5.2129   7.4874   7.9323  13.3411
    15.3304  15.8583

          k =-0.0000 0.1644 0.5249 (  2004 PWs)   bands (ev):

   -38.9045 -11.8746  -6.6610  -6.0582  -5.1064  -4.1592  -2.5635  -2.1014
    -1.0184   3.5682   3.8464   4.6248   4.9600   7.2684   7.7186  14.8533
    15.3668  15.8942

          k =-0.0000 0.3288-0.0000 (  2023 PWs)   bands (ev):

   -38.9063 -11.5182  -8.3224  -6.7462  -5.5997  -2.9426  -1.3285  -0.5154
     0.6912   2.0700   2.8888   4.3033   5.4831   8.8451  10.5019  10.5139
    13.8759  14.7857

          k =-0.0000 0.3288 0.1312 (  2022 PWs)   bands (ev):

   -38.9061 -11.5049  -8.3082  -6.7285  -5.5916  -2.9313  -1.3247  -0.5097
     0.5297   2.0752   2.8927   4.1228   5.3030   8.6806  10.3720  10.9704
    14.2738  15.2136

          k =-0.0000 0.3288 0.2624 (  2028 PWs)   bands (ev):

   -38.9055 -11.4710  -8.2717  -6.6833  -5.5708  -2.9023  -1.3141  -0.4951
     0.1502   2.0886   2.9021   3.7119   4.8855   8.3191  10.0454  12.1919
    15.2949  15.6788

          k =-0.0000 0.3288 0.3936 (  2011 PWs)   bands (ev):

   -38.9049 -11.4318  -8.2289  -6.6306  -5.5463  -2.8687  -1.3003  -0.4780
    -0.2417   2.1039   2.9125   3.3014   4.4615   7.9613   9.7144  13.8292
    15.6415  15.9266

          k =-0.0000 0.3288 0.5249 (  2010 PWs)   bands (ev):

   -38.9045 -11.4058  -8.2004  -6.5954  -5.5299  -2.8466  -1.2899  -0.4824
    -0.4646   2.1141   2.9194   3.0566   4.2066   7.7482   9.5150  15.3398
    15.6597  15.8284

          k =-0.0000 0.4932-0.0000 (  2019 PWs)   bands (ev):

   -38.9063 -10.7443  -9.6611  -7.0207  -5.8505  -1.3900   0.0911   0.3255
     0.6955   1.5691   1.5791   2.8616   5.1072   8.9882  11.0629  12.4512
    12.8094  14.4674

          k =-0.0000 0.4932 0.1312 (  2020 PWs)   bands (ev):

   -38.9060 -10.7315  -9.6463  -7.0026  -5.8432  -1.3806   0.0958   0.3328
     0.7000   1.4066   1.5908   2.6738   4.9258   8.8229  11.5418  12.3254
    13.2230  14.3505

          k =-0.0000 0.4932 0.2624 (  2022 PWs)   bands (ev):

   -38.9055 -10.6991  -9.6082  -6.9561  -5.8242  -1.3567   0.1082   0.3514
     0.7115   1.0351   1.5995   2.2555   4.5054   8.4592  12.0400  12.7892
    14.1304  14.2849

          k =-0.0000 0.4932 0.3936 (  2017 PWs)   bands (ev):

   -38.9048 -10.6621  -9.5632  -6.9019  -5.8018  -1.3291   0.1242   0.3729
     0.6397   0.7264   1.6091   1.8484   4.0784   8.1055  11.7506  13.9015
    14.3480  14.4295

          k =-0.0000 0.4932 0.5249 (  2016 PWs)   bands (ev):

   -38.9044 -10.6379  -9.5328  -6.8657  -5.7866  -1.3109   0.1363   0.3870
     0.3971   0.7344   1.6082   1.6167   3.8217   7.8978  11.5756  13.7609
    14.3762  15.8284

          k = 0.1424 0.2466-0.0000 (  2019 PWs)   bands (ev):

   -38.9063 -11.6743  -7.5338  -7.3994  -4.3687  -4.2533  -1.3445  -1.1061
     0.5098   2.4138   3.3018   5.0445   5.1993   9.4427   9.4600  10.3720
    14.3816  14.5641

          k = 0.1424 0.2466 0.1312 (  2027 PWs)   bands (ev):

   -38.9061 -11.6610  -7.5213  -7.3824  -4.3549  -4.2457  -1.3413  -1.0989
     0.3485   2.4188   3.3049   4.8709   5.0128   9.2869   9.3043  10.8383
    14.7980  14.9080

          k = 0.1424 0.2466 0.2624 (  2013 PWs)   bands (ev):

   -38.9055 -11.6270  -7.4892  -7.3387  -4.3194  -4.2259  -1.3324  -1.0807
    -0.0302   2.4312   3.3129   4.4751   4.5822   8.8896   9.0047  12.0491
    15.1862  15.8397

          k = 0.1424 0.2466 0.3936 (  2011 PWs)   bands (ev):

   -38.9049 -11.5877  -7.4516  -7.2878  -4.2783  -4.2025  -1.3200  -1.0598
    -0.4211   2.4452   3.3221   4.0786   4.1470   8.4903   8.7021  13.6809
    15.2374  16.3874

          k = 0.1424 0.2466 0.5249 (  2009 PWs)   bands (ev):

   -38.9045 -11.5616  -7.4264  -7.2540  -4.2509  -4.1868  -1.3101  -1.0460
    -0.6594   2.4544   3.3284   3.8417   3.8862   8.2520   8.5187  15.1783
    15.2908  16.3016

          k = 0.1424 0.4110-0.0000 (  2027 PWs)   bands (ev):

   -38.9063 -11.0519  -8.9136  -7.8885  -4.6110  -2.8287  -0.0541   0.3319
     0.7011   1.2268   2.4042   3.6497   4.6212   9.7384  10.8849  11.1905
    13.2383  14.1492

          k = 0.1424 0.4110 0.1312 (  2012 PWs)   bands (ev):

   -38.9061 -11.0388  -8.8996  -7.8731  -4.6009  -2.8191  -0.0491   0.3370
     0.7059   1.0678   2.4082   3.4696   4.4365   9.5797  11.0380  11.3753
    13.6627  14.4982

          k = 0.1424 0.4110 0.2624 (  2016 PWs)   bands (ev):

   -38.9055 -11.0052  -8.8633  -7.8332  -4.5748  -2.7941  -0.0359   0.3502
     0.6641   0.7459   2.4180   3.0605   4.0143   9.2267  10.7306  12.6014
    14.7733  14.7933

          k = 0.1424 0.4110 0.3936 (  2010 PWs)   bands (ev):

   -38.9048 -10.9666  -8.8208  -7.7866  -4.5443  -2.7650  -0.0199   0.2886
     0.3653   0.7453   2.4290   2.6522   3.5922   8.8720  10.4172  14.2156
    14.6003  15.0485

          k = 0.1424 0.4110 0.5249 (  2012 PWs)   bands (ev):

   -38.9044 -10.9411  -8.7924  -7.7554  -4.5238  -2.7455  -0.0084   0.0491
     0.3753   0.7560   2.4077   2.4369   3.3411   8.6589  10.2301  14.4564
    15.0353  15.2878

          k = 0.1424 0.5754-0.0000 (  2012 PWs)   bands (ev):

   -38.9062 -10.1998 -10.0480  -8.0341  -4.7247  -1.1349  -1.1122   0.9449
     1.2502   1.2610   2.0876   2.5174   4.4416   9.8028  11.3412  12.5168
    13.1525  13.1615

          k = 0.1424 0.5754 0.1312 (  2015 PWs)   bands (ev):

   -38.9060 -10.1924 -10.0279  -8.0187  -4.7149  -1.1255  -1.1049   0.9498
     1.2526   1.2656   1.9670   2.2978   4.2569   9.6447  11.8177  12.9383
    13.0371  13.0479

          k = 0.1424 0.5754 0.2624 (  2015 PWs)   bands (ev):

   -38.9055 -10.1739  -9.9763  -7.9790  -4.6893  -1.1015  -1.0859   0.9623
     1.2587   1.2771   1.6774   1.8004   3.8345   9.2903  12.7330  12.7752
    13.0896  14.0765

          k = 0.1424 0.5754 0.3936 (  2025 PWs)   bands (ev):

   -38.9048 -10.1528  -9.9160  -7.9325  -4.6593  -1.0738  -1.0633   0.9764
     1.2620   1.2752   1.3224   1.3749   3.4123   8.9394  12.4611  12.5142
    14.1819  14.6649

          k = 0.1424 0.5754 0.5249 (  2027 PWs)   bands (ev):

   -38.9044 -10.1390  -9.8756  -7.9014  -4.6392  -1.0553  -1.0479   0.9841
     1.0129   1.1701   1.2821   1.3026   3.1612   8.7311  12.2858  12.3582
    14.1965  15.4638

          k = 0.2847 0.4932-0.0000 (  2017 PWs)   bands (ev):

   -38.9062 -10.2853  -9.2735  -9.1349  -3.0186  -2.9273  -1.1406   1.0779
     1.2116   1.8682   2.0713   3.2049   3.4667  11.4002  11.4862  11.4980
    12.4304  13.3595

          k = 0.2847 0.4932 0.1312 (  2010 PWs)   bands (ev):

   -38.9060 -10.2731  -9.2624  -9.1160  -3.0064  -2.9205  -1.1325   1.0826
     1.2155   1.8721   1.9221   3.0345   3.2588  11.2832  11.3143  11.9783
    12.8829  13.2429

          k = 0.2847 0.4932 0.2624 (  2005 PWs)   bands (ev):

   -38.9054 -10.2421  -9.2331  -9.0672  -2.9749  -2.9028  -1.1117   1.0947
     1.2257   1.5553   1.8820   2.6620   2.7845  10.9217  11.0371  12.9578
    13.2093  14.0155

          k = 0.2847 0.4932 0.3936 (  2013 PWs)   bands (ev):

   -38.9048 -10.2072  -9.1980  -9.0104  -2.9386  -2.8818  -1.0870   1.1084
     1.1589   1.2373   1.8934   2.3079   2.3107  10.5279  10.7824  12.6970
    14.4556  14.5618

          k = 0.2847 0.4932 0.5249 (  2012 PWs)   bands (ev):

   -38.9044 -10.1845  -9.1739  -8.9724  -2.9144  -2.8674  -1.0702   0.9099
     1.1197   1.2449   1.9014   2.0283   2.1028  10.2931  10.6268  12.5352
    14.4183  14.8046

     the Fermi energy is     8.5769 ev

!    total energy              =    -124.93044238 Ry
     estimated scf accuracy    <          2.2E-09 Ry
     smearing contrib. (-TS)   =      -0.00086596 Ry
     internal energy E=F+TS    =    -124.92957642 Ry

     The total energy is F=E-TS. E is the sum of the following terms:
     one-electron contribution =     -22.48294382 Ry
     hartree contribution      =      23.75698977 Ry
     xc contribution           =     -31.55681004 Ry
     ewald contribution        =     -58.00577065 Ry
     one-center paw contrib.   =     -36.64104168 Ry

     convergence has been achieved in   8 iterations

     Forces acting on atoms (cartesian axes, Ry/au):

     atom    1 type  1   force =    -0.00000000   -0.00000000    0.00000000
     atom    2 type  2   force =     0.00004057   -0.00007027   -0.00000000
     atom    3 type  2   force =     0.00004057    0.00007027   -0.00000000
     atom    4 type  2   force =    -0.00008115   -0.00000000    0.00000000
     atom    5 type  2   force =    -0.00004057    0.00007027   -0.00000000
     atom    6 type  2   force =    -0.00004057   -0.00007027    0.00000000
     atom    7 type  2   force =     0.00008115   -0.00000000    0.00000000

     Total force =     0.000199     Total SCF correction =     0.000007


     Computing stress (Cartesian axis) and pressure

          total   stress  (Ry/bohr**3)                   (kbar)     P=       -0.93
  -0.00000355   0.00000000   0.00000000           -0.52        0.00        0.00
   0.00000000  -0.00000355   0.00000000            0.00       -0.52        0.00
   0.00000000   0.00000000  -0.00001180            0.00        0.00       -1.74

     Energy error            =      2.5E-04
     Gradient error          =      8.1E-05
     Cell gradient error     =      1.2E-05


     number of scf cycles    =   3
     number of bfgs steps    =   2

     enthalpy old            =    -124.9301877371 Ry
     enthalpy new            =    -124.9304423818 Ry

     CASE: enthalpy_new < enthalpy_old

     new trust radius        =       0.0012035392 bohr
     new conv_thr            =       0.0000000100 Ry

     new unit-cell volume =    397.96470 a.u.^3 (    58.97228 Ang^3 )
     density =      2.22465 g/cm^3

CELL_PARAMETERS (angstrom)
   4.321652028   0.000000000   0.000000000
  -2.160826014   3.742660917   0.000000000
   0.000000000   0.000000000   3.646008453

ATOMIC_POSITIONS (angstrom)
Li            0.0000000000       -0.0000000000       -0.0000000000
C            -0.7209962557        1.2488020081        1.8230042266
C             1.4398297584        2.4938589087        1.8230042266
C             1.4419925115        0.0000000000        1.8230042266
C            -1.4398297584        2.4938589087        1.8230042266
C             0.7209962557        1.2488020081        1.8230042266
C             2.8796595168        0.0000000000        1.8230042266



     Writing output data file ./LiC6.save/
     NEW-OLD atomic charge density approx. for the potential

     Check: negative core charge=   -0.000011
     extrapolated charge   26.98922, renormalised to   27.00000

     total cpu time spent up to now is      161.1 secs

     Self-consistent Calculation

     iteration #  1     ecut=    45.00 Ry     beta= 0.70
     Davidson diagonalization with overlap
     ethr =  1.00E-06,  avg # of iterations =  2.0

     Threshold (ethr) on eigenvalues was too large:
     Diagonalizing with lowered threshold

     Davidson diagonalization with overlap
     ethr =  7.02E-09,  avg # of iterations =  1.5

     total cpu time spent up to now is      166.0 secs

     total energy              =    -124.93044006 Ry
     estimated scf accuracy    <       0.00000195 Ry

     iteration #  2     ecut=    45.00 Ry     beta= 0.70
     Davidson diagonalization with overlap
     ethr =  7.22E-09,  avg # of iterations =  3.1

     total cpu time spent up to now is      169.1 secs

     total energy              =    -124.93044402 Ry
     estimated scf accuracy    <       0.00000282 Ry

     iteration #  3     ecut=    45.00 Ry     beta= 0.70
     Davidson diagonalization with overlap
     ethr =  7.22E-09,  avg # of iterations =  1.6

     total cpu time spent up to now is      171.3 secs

     total energy              =    -124.93044371 Ry
     estimated scf accuracy    <       0.00000073 Ry

     iteration #  4     ecut=    45.00 Ry     beta= 0.70
     Davidson diagonalization with overlap
     ethr =  2.70E-09,  avg # of iterations =  2.1

     total cpu time spent up to now is      173.9 secs

     End of self-consistent calculation

          k = 0.0000 0.0000 0.0000 (  2025 PWs)   bands (ev):

   -38.9011 -12.1418  -5.5193  -5.5193  -5.2088  -5.2087  -3.3099  -3.0362
    -0.0368   4.1687   4.1687   7.1777   7.1777   7.5189   7.5189   9.9811
    14.9306  14.9306

          k =-0.0000-0.0000 0.1313 (  2007 PWs)   bands (ev):

   -38.9008 -12.1285  -5.5021  -5.5021  -5.1957  -5.1957  -3.3162  -3.0270
    -0.1968   4.1711   4.1711   6.9763   6.9763   7.3856   7.3856  10.4076
    15.0549  15.0549

          k =-0.0000-0.0000 0.2625 (  2019 PWs)   bands (ev):

   -38.9003 -12.0944  -5.4579  -5.4579  -5.1624  -5.1624  -3.3309  -3.0036
    -0.5724   4.1771   4.1771   6.5188   6.5188   7.0690   7.0690  11.5635
    15.1886  15.1886

          k =-0.0000-0.0000 0.3938 (  2013 PWs)   bands (ev):

   -38.8996 -12.0549  -5.4064  -5.4064  -5.1239  -5.1239  -3.3449  -2.9767
    -0.9601   4.1840   4.1840   6.0643   6.0643   6.7386   6.7386  13.1561
    15.2573  15.2573

          k =-0.0000-0.0000 0.5250 (  2006 PWs)   bands (ev):

   -38.8992 -12.0286  -5.3721  -5.3721  -5.0984  -5.0984  -3.3520  -2.9590
    -1.1963   4.1886   4.1886   5.7949   5.7949   6.5367   6.5367  14.6429
    15.2898  15.2898

          k =-0.0000 0.1644-0.0000 (  2025 PWs)   bands (ev):

   -38.9010 -11.9848  -6.7822  -6.1981  -5.1912  -4.2666  -2.5726  -2.1618
     0.1478   3.5447   3.8277   5.8819   6.2309   8.3766   8.7979  10.1134
    14.8410  15.0712

          k =-0.0000 0.1644 0.1313 (  2031 PWs)   bands (ev):

   -38.9008 -11.9715  -6.7676  -6.1813  -5.1808  -4.2535  -2.5722  -2.1545
    -0.0128   3.5479   3.8304   5.7027   6.0523   8.2175   8.6450  10.5564
    15.0737  15.3982

          k =-0.0000 0.1644 0.2625 (  2028 PWs)   bands (ev):

   -38.9002 -11.9374  -6.7302  -6.1382  -5.1542  -4.2199  -2.5700  -2.1354
    -0.3898   3.5564   3.8374   5.2910   5.6375   7.8560   8.2927  11.7371
    15.2658  15.7672

          k =-0.0000 0.1644 0.3938 (  2020 PWs)   bands (ev):

   -38.8996 -11.8979  -6.6866  -6.0879  -5.1233  -4.1810  -2.5653  -2.1129
    -0.7788   3.5662   3.8454   4.8761   5.2161   7.4912   7.9362  13.3500
    15.3356  15.8637

          k =-0.0000 0.1644 0.5250 (  2004 PWs)   bands (ev):

   -38.8991 -11.8716  -6.6575  -6.0544  -5.1027  -4.1552  -2.5604  -2.0977
    -1.0159   3.5726   3.8507   4.6276   4.9628   7.2719   7.7222  14.8626
    15.3720  15.8996

          k =-0.0000 0.3288-0.0000 (  2023 PWs)   bands (ev):

   -38.9010 -11.5154  -8.3193  -6.7428  -5.5964  -2.9388  -1.3252  -0.5117
     0.6953   2.0742   2.8929   4.3079   5.4878   8.8504  10.5084  10.5193
    13.8824  14.7919

          k =-0.0000 0.3288 0.1313 (  2022 PWs)   bands (ev):

   -38.9007 -11.5021  -8.3051  -6.7251  -5.5883  -2.9275  -1.3213  -0.5060
     0.5336   2.0794   2.8968   4.1271   5.3074   8.6856  10.3771  10.9774
    14.2807  15.2202

          k =-0.0000 0.3288 0.2625 (  2028 PWs)   bands (ev):

   -38.9002 -11.4681  -8.2685  -6.6798  -5.5675  -2.8984  -1.3107  -0.4913
     0.1536   2.0928   2.9062   3.7156   4.8893   8.3235  10.0500  12.1999
    15.3024  15.6838

          k =-0.0000 0.3288 0.3938 (  2011 PWs)   bands (ev):

   -38.8995 -11.4288  -8.2256  -6.6269  -5.5429  -2.8648  -1.2969  -0.4743
    -0.2388   2.1082   2.9167   3.3045   4.4646   7.9652   9.7185  13.8384
    15.6465  15.9319

          k =-0.0000 0.3288 0.5250 (  2010 PWs)   bands (ev):

   -38.8991 -11.4027  -8.1970  -6.5917  -5.5264  -2.8426  -1.2864  -0.4798
    -0.4608   2.1184   2.9235   3.0593   4.2093   7.7517   9.5188  15.3496
    15.6646  15.8335

          k =-0.0000 0.4932-0.0000 (  2019 PWs)   bands (ev):

   -38.9009 -10.7414  -9.6581  -7.0173  -5.8473  -1.3861   0.0947   0.3295
     0.6993   1.5733   1.5830   2.8661   5.1118   8.9935  11.0693  12.4568
    12.8161  14.4727

          k =-0.0000 0.4932 0.1313 (  2020 PWs)   bands (ev):

   -38.9007 -10.7287  -9.6433  -6.9992  -5.8400  -1.3767   0.0994   0.3368
     0.7038   1.4105   1.5947   2.6780   4.9301   8.8279  11.5486  12.3307
    13.2301  14.3561

          k =-0.0000 0.4932 0.2625 (  2022 PWs)   bands (ev):

   -38.9001 -10.6962  -9.6051  -6.9526  -5.8209  -1.3527   0.1119   0.3555
     0.7154   1.0385   1.6034   2.2590   4.5091   8.4636  12.0449  12.7972
    14.1356  14.2910

          k =-0.0000 0.4932 0.3938 (  2017 PWs)   bands (ev):

   -38.8995 -10.6591  -9.5600  -6.8983  -5.7985  -1.3251   0.1279   0.3770
     0.6426   0.7302   1.6130   1.8514   4.0814   8.1093  11.7550  13.9063
    14.3542  14.4381

          k =-0.0000 0.4932 0.5250 (  2016 PWs)   bands (ev):

   -38.8990 -10.6349  -9.5294  -6.8620  -5.7833  -1.3068   0.1400   0.3912
     0.3997   0.7383   1.6109   1.6205   3.8244   7.9013  11.5797  13.7655
    14.3820  15.8383

          k = 0.1424 0.2466-0.0000 (  2019 PWs)   bands (ev):

   -38.9010 -11.6716  -7.5308  -7.3959  -4.3655  -4.2495  -1.3412  -1.1024
     0.5140   2.4180   3.3060   5.0491   5.2041   9.4482   9.4651  10.3785
    14.3879  14.5704

          k = 0.1424 0.2466 0.1313 (  2027 PWs)   bands (ev):

   -38.9007 -11.6582  -7.5183  -7.3789  -4.3517  -4.2418  -1.3380  -1.0952
     0.3524   2.4230   3.3091   4.8751   5.0173   9.2917   9.3095  10.8453
    14.8046  14.9142

          k = 0.1424 0.2466 0.2625 (  2013 PWs)   bands (ev):

   -38.9002 -11.6241  -7.4861  -7.3351  -4.3161  -4.2220  -1.3290  -1.0769
    -0.0268   2.4355   3.3171   4.4787   4.5860   8.8939   9.0094  12.0571
    15.1916  15.8472

          k = 0.1424 0.2466 0.3938 (  2011 PWs)   bands (ev):

   -38.8995 -11.5847  -7.4484  -7.2841  -4.2749  -4.1985  -1.3167  -1.0559
    -0.4182   2.4494   3.3264   4.0817   4.1502   8.4940   8.7062  13.6900
    15.2427  16.3928

          k = 0.1424 0.2466 0.5250 (  2009 PWs)   bands (ev):

   -38.8991 -11.5586  -7.4231  -7.2502  -4.2475  -4.1827  -1.3066  -1.0422
    -0.6569   2.4586   3.3326   3.8445   3.8890   8.2553   8.5225  15.1867
    15.2975  16.3069

          k = 0.1424 0.4110-0.0000 (  2027 PWs)   bands (ev):

   -38.9009 -11.0491  -8.9106  -7.8853  -4.6076  -2.8251  -0.0505   0.3356
     0.7051   1.2310   2.4082   3.6542   4.6258   9.7438  10.8913  11.1959
    13.2447  14.1551

          k = 0.1424 0.4110 0.1313 (  2012 PWs)   bands (ev):

   -38.9007 -11.0359  -8.8965  -7.8698  -4.5974  -2.8154  -0.0455   0.3408
     0.7099   1.0717   2.4122   3.4738   4.4409   9.5848  11.0433  11.3822
    13.6695  14.5040

          k = 0.1424 0.4110 0.2625 (  2016 PWs)   bands (ev):

   -38.9001 -11.0023  -8.8601  -7.8299  -4.5713  -2.7904  -0.0323   0.3540
     0.6677   0.7499   2.4220   3.0641   4.0180   9.2312  10.7353  12.6094
    14.7811  14.7986

          k = 0.1424 0.4110 0.3938 (  2010 PWs)   bands (ev):

   -38.8995 -10.9636  -8.8176  -7.7831  -4.5407  -2.7611  -0.0161   0.2915
     0.3692   0.7494   2.4330   2.6552   3.5953   8.8759  10.4215  14.2246
    14.6054  15.0535

          k = 0.1424 0.4110 0.5250 (  2012 PWs)   bands (ev):

   -38.8990 -10.9381  -8.7890  -7.7518  -4.5202  -2.7416  -0.0047   0.0517
     0.3792   0.7602   2.4105   2.4409   3.3438   8.6625  10.2340  14.4612
    15.0402  15.2944

          k = 0.1424 0.5754-0.0000 (  2012 PWs)   bands (ev):

   -38.9009 -10.1971 -10.0448  -8.0309  -4.7213  -1.1315  -1.1079   0.9487
     1.2544   1.2645   2.0917   2.5221   4.4463   9.8081  11.3474  12.5234
    13.1578  13.1675

          k = 0.1424 0.5754 0.1313 (  2015 PWs)   bands (ev):

   -38.9007 -10.1898 -10.0247  -8.0155  -4.7114  -1.1221  -1.1006   0.9536
     1.2568   1.2691   1.9708   2.3022   4.2612   9.6498  11.8244  12.9452
    13.0423  13.0538

          k = 0.1424 0.5754 0.2625 (  2015 PWs)   bands (ev):

   -38.9001 -10.1713  -9.9729  -7.9757  -4.6858  -1.0981  -1.0815   0.9662
     1.2629   1.2806   1.6809   1.8040   3.8382   9.2948  12.7378  12.7805
    13.0973  14.0844

          k = 0.1424 0.5754 0.3938 (  2025 PWs)   bands (ev):

   -38.8994 -10.1501  -9.9124  -7.9291  -4.6558  -1.0702  -1.0589   0.9803
     1.2660   1.2784   1.3255   1.3781   3.4153   8.9433  12.4652  12.5192
    14.1875  14.6738

          k = 0.1424 0.5754 0.5250 (  2027 PWs)   bands (ev):

   -38.8990 -10.1363  -9.8720  -7.8978  -4.6356  -1.0517  -1.0434   0.9878
     1.0157   1.1728   1.2863   1.3061   3.1639   8.7347  12.2897  12.3629
    14.2021  15.4691

          k = 0.2847 0.4932-0.0000 (  2017 PWs)   bands (ev):

   -38.9009 -10.2825  -9.2707  -9.1316  -3.0154  -2.9233  -1.1368   1.0818
     1.2153   1.8721   2.0754   3.2094   3.4715  11.4060  11.4914  11.5043
    12.4366  13.3651

          k = 0.2847 0.4932 0.1313 (  2010 PWs)   bands (ev):

   -38.9006 -10.2702  -9.2595  -9.1126  -3.0031  -2.9165  -1.1287   1.0865
     1.2193   1.8760   1.9260   3.0386   3.2632  11.2888  11.3192  11.9851
    12.8896  13.2484

          k = 0.2847 0.4932 0.2625 (  2005 PWs)   bands (ev):

   -38.9001 -10.2392  -9.2302  -9.0638  -2.9716  -2.8988  -1.1078   1.0986
     1.2295   1.5588   1.8859   2.6655   2.7882  10.9260  11.0421  12.9629
    13.2170  14.0228

          k = 0.2847 0.4932 0.3938 (  2013 PWs)   bands (ev):

   -38.8994 -10.2042  -9.1949  -9.0068  -2.9352  -2.8777  -1.0830   1.1123
     1.1619   1.2411   1.8973   2.3109   2.3138  10.5316  10.7869  12.7016
    14.4599  14.5689

          k = 0.2847 0.4932 0.5250 (  2012 PWs)   bands (ev):

   -38.8990 -10.1815  -9.1707  -8.9687  -2.9109  -2.8633  -1.0662   0.9125
     1.1237   1.2488   1.9054   2.0310   2.1055  10.2966  10.6311  12.5396
    14.4227  14.8111

     the Fermi energy is     8.5810 ev

!    total energy              =    -124.93044382 Ry
     estimated scf accuracy    <          9.2E-09 Ry
     smearing contrib. (-TS)   =      -0.00086532 Ry
     internal energy E=F+TS    =    -124.92957850 Ry

     The total energy is F=E-TS. E is the sum of the following terms:
     one-electron contribution =     -22.45044327 Ry
     hartree contribution      =      23.74435032 Ry
     xc contribution           =     -31.55761032 Ry
     ewald contribution        =     -58.02481300 Ry
     one-center paw contrib.   =     -36.64106222 Ry

     convergence has been achieved in   4 iterations

     Forces acting on atoms (cartesian axes, Ry/au):

     atom    1 type  1   force =     0.00000000   -0.00000000    0.00000000
     atom    2 type  2   force =    -0.00003908    0.00006768   -0.00000000
     atom    3 type  2   force =    -0.00003908   -0.00006768   -0.00000000
     atom    4 type  2   force =     0.00007816   -0.00000000    0.00000000
     atom    5 type  2   force =     0.00003908   -0.00006768   -0.00000000
     atom    6 type  2   force =     0.00003908    0.00006768   -0.00000000
     atom    7 type  2   force =    -0.00007816   -0.00000000    0.00000000

     Total force =     0.000191     Total SCF correction =     0.000017


     Computing stress (Cartesian axis) and pressure

          total   stress  (Ry/bohr**3)                   (kbar)     P=       -0.57
   0.00000046  -0.00000000   0.00000000            0.07       -0.00        0.00
  -0.00000000   0.00000046  -0.00000000           -0.00        0.07       -0.00
   0.00000000   0.00000000  -0.00001251            0.00        0.00       -1.84

     Energy error            =      1.4E-06
     Gradient error          =      7.8E-05
     Cell gradient error     =      1.3E-05


     number of scf cycles    =   4
     number of bfgs steps    =   3

     enthalpy old            =    -124.9304423818 Ry
     enthalpy new            =    -124.9304438249 Ry

     CASE: enthalpy_new < enthalpy_old


     WARNING: bfgs curvature condition failed, Theta= 0.887
     new trust radius        =       0.0013240237 bohr
     new conv_thr            =       0.0000000100 Ry

     new unit-cell volume =    397.80349 a.u.^3 (    58.94839 Ang^3 )
     density =      2.22555 g/cm^3

CELL_PARAMETERS (angstrom)
   4.321493711   0.000000000   0.000000000
  -2.160746856   3.742523810   0.000000000
   0.000000000   0.000000000   3.644798521

ATOMIC_POSITIONS (angstrom)
Li            0.0000000000       -0.0000000000       -0.0000000000
C            -0.7209623395        1.2487432635        1.8223992603
C             1.4397845160        2.4937805466        1.8223992603
C             1.4419246791        0.0000000000        1.8223992603
C            -1.4397845160        2.4937805466        1.8223992603
C             0.7209623395        1.2487432635        1.8223992603
C             2.8795690321        0.0000000000        1.8223992603



     Writing output data file ./LiC6.save/
     NEW-OLD atomic charge density approx. for the potential

     Check: negative core charge=   -0.000011
     extrapolated charge   26.98924, renormalised to   27.00000

     total cpu time spent up to now is      179.6 secs

     Self-consistent Calculation

     iteration #  1     ecut=    45.00 Ry     beta= 0.70
     Davidson diagonalization with overlap
     ethr =  1.00E-06,  avg # of iterations =  2.0

     Threshold (ethr) on eigenvalues was too large:
     Diagonalizing with lowered threshold

     Davidson diagonalization with overlap
     ethr =  7.60E-09,  avg # of iterations =  2.0

     total cpu time spent up to now is      184.3 secs

     total energy              =    -124.93044121 Ry
     estimated scf accuracy    <       0.00000210 Ry

     iteration #  2     ecut=    45.00 Ry     beta= 0.70
     Davidson diagonalization with overlap
     ethr =  7.78E-09,  avg # of iterations =  3.2

     total cpu time spent up to now is      187.5 secs

     total energy              =    -124.93044525 Ry
     estimated scf accuracy    <       0.00000283 Ry

     iteration #  3     ecut=    45.00 Ry     beta= 0.70
     Davidson diagonalization with overlap
     ethr =  7.78E-09,  avg # of iterations =  1.6

     total cpu time spent up to now is      189.8 secs

     total energy              =    -124.93044495 Ry
     estimated scf accuracy    <       0.00000070 Ry

     iteration #  4     ecut=    45.00 Ry     beta= 0.70
     Davidson diagonalization with overlap
     ethr =  2.60E-09,  avg # of iterations =  2.2

     total cpu time spent up to now is      192.4 secs

     End of self-consistent calculation

          k = 0.0000 0.0000 0.0000 (  2025 PWs)   bands (ev):

   -38.8956 -12.1392  -5.5166  -5.5166  -5.2053  -5.2053  -3.3073  -3.0333
    -0.0325   4.1724   4.1724   7.1821   7.1821   7.5239   7.5239   9.9883
    14.9353  14.9353

          k =-0.0000-0.0000 0.1313 (  2007 PWs)   bands (ev):

   -38.8953 -12.1258  -5.4993  -5.4993  -5.1922  -5.1922  -3.3136  -3.0240
    -0.1928   4.1748   4.1748   6.9804   6.9804   7.3903   7.3903  10.4152
    15.0593  15.0593

          k =-0.0000-0.0000 0.2626 (  2019 PWs)   bands (ev):

   -38.8947 -12.0917  -5.4550  -5.4550  -5.1588  -5.1588  -3.3283  -3.0006
    -0.5690   4.1808   4.1808   6.5221   6.5222   7.0731   7.0731  11.5721
    15.1929  15.1929

          k =-0.0000-0.0000 0.3939 (  2013 PWs)   bands (ev):

   -38.8941 -12.0521  -5.4034  -5.4034  -5.1202  -5.1202  -3.3423  -2.9736
    -0.9572   4.1878   4.1878   6.0670   6.0670   6.7422   6.7422  13.1656
    15.2616  15.2616

          k =-0.0000-0.0000 0.5252 (  2006 PWs)   bands (ev):

   -38.8937 -12.0257  -5.3690  -5.3690  -5.0946  -5.0946  -3.3494  -2.9558
    -1.1938   4.1924   4.1924   5.7972   5.7972   6.5399   6.5399  14.6526
    15.2942  15.2942

          k =-0.0000 0.1644-0.0000 (  2025 PWs)   bands (ev):

   -38.8955 -11.9822  -6.7793  -6.1951  -5.1881  -4.2634  -2.5698  -2.1587
     0.1521   3.5483   3.8313   5.8864   6.2355   8.3814   8.8027  10.1206
    14.8465  15.0768

          k =-0.0000 0.1644 0.1313 (  2031 PWs)   bands (ev):

   -38.8953 -11.9688  -6.7647  -6.1782  -5.1777  -4.2502  -2.5694  -2.1513
    -0.0088   3.5516   3.8341   5.7069   6.0565   8.2220   8.6495  10.5639
    15.0789  15.4038

          k =-0.0000 0.1644 0.2626 (  2028 PWs)   bands (ev):

   -38.8947 -11.9346  -6.7271  -6.1350  -5.1510  -4.2166  -2.5672  -2.1322
    -0.3863   3.5601   3.8410   5.2945   5.6411   7.8599   8.2966  11.7457
    15.2701  15.7717

          k =-0.0000 0.1644 0.3939 (  2020 PWs)   bands (ev):

   -38.8941 -11.8950  -6.6834  -6.0846  -5.1200  -4.1776  -2.5624  -2.1096
    -0.7759   3.5699   3.8491   4.8790   5.2189   7.4945   7.9396  13.3597
    15.3400  15.8681

          k =-0.0000 0.1644 0.5252 (  2004 PWs)   bands (ev):

   -38.8936 -11.8687  -6.6543  -6.0511  -5.0994  -4.1517  -2.5576  -2.0944
    -1.0134   3.5763   3.8544   4.6301   4.9653   7.2749   7.7252  14.8727
    15.3764  15.9041

          k =-0.0000 0.3288-0.0000 (  2023 PWs)   bands (ev):

   -38.8954 -11.5128  -8.3164  -6.7398  -5.5935  -2.9355  -1.3222  -0.5085
     0.6996   2.0777   2.8964   4.3124   5.4923   8.8553  10.5154  10.5242
    13.8892  14.7983

          k =-0.0000 0.3288 0.1313 (  2022 PWs)   bands (ev):

   -38.8952 -11.4994  -8.3022  -6.7220  -5.5854  -2.9241  -1.3183  -0.5028
     0.5377   2.0830   2.9003   4.1313   5.3116   8.6903  10.3817  10.9848
    14.2878  15.2271

          k =-0.0000 0.3288 0.2626 (  2028 PWs)   bands (ev):

   -38.8946 -11.4654  -8.2655  -6.6766  -5.5645  -2.8950  -1.3077  -0.4880
     0.1570   2.0964   2.9098   3.7191   4.8928   8.3275  10.0541  12.2085
    15.3101  15.6883

          k =-0.0000 0.3288 0.3939 (  2011 PWs)   bands (ev):

   -38.8940 -11.4259  -8.2225  -6.6236  -5.5398  -2.8613  -1.2938  -0.4709
    -0.2359   2.1118   2.9202   3.3074   4.4674   7.9686   9.7220  13.8483
    15.6508  15.9364

          k =-0.0000 0.3288 0.5252 (  2010 PWs)   bands (ev):

   -38.8936 -11.3998  -8.1938  -6.5883  -5.5233  -2.8390  -1.2833  -0.4772
    -0.4575   2.1220   2.9271   3.0619   4.2118   7.7548   9.5220  15.3602
    15.6690  15.8377

          k =-0.0000 0.4932-0.0000 (  2019 PWs)   bands (ev):

   -38.8954 -10.7388  -9.6553  -7.0143  -5.8444  -1.3828   0.0978   0.3329
     0.7026   1.5776   1.5863   2.8706   5.1163   8.9985  11.0760  12.4618
    12.8232  14.4770

          k =-0.0000 0.4932 0.1313 (  2020 PWs)   bands (ev):

   -38.8952 -10.7260  -9.6405  -6.9961  -5.8371  -1.3733   0.1025   0.3403
     0.7072   1.4145   1.5981   2.6822   4.9343   8.8326  11.5559  12.3355
    13.2375  14.3611

          k =-0.0000 0.4932 0.2626 (  2022 PWs)   bands (ev):

   -38.8946 -10.6934  -9.6022  -6.9494  -5.8180  -1.3493   0.1151   0.3590
     0.7187   1.0420   1.6068   2.2625   4.5126   8.4677  12.0491  12.8056
    14.1401  14.2966

          k =-0.0000 0.4932 0.3939 (  2017 PWs)   bands (ev):

   -38.8939 -10.6562  -9.5569  -6.8950  -5.7954  -1.3215   0.1311   0.3806
     0.6455   0.7336   1.6165   1.8543   4.0843   8.1129  11.7588  13.9104
    14.3597  14.4473

          k =-0.0000 0.4932 0.5252 (  2016 PWs)   bands (ev):

   -38.8935 -10.6319  -9.5263  -6.8586  -5.7802  -1.3032   0.1432   0.3948
     0.4021   0.7417   1.6135   1.6239   3.8269   7.9045  11.5832  13.7693
    14.3868  15.8490

          k = 0.1424 0.2466-0.0000 (  2019 PWs)   bands (ev):

   -38.8955 -11.6689  -7.5280  -7.3929  -4.3626  -4.2462  -1.3382  -1.0991
     0.5183   2.4215   3.3096   5.0535   5.2088   9.4531   9.4699  10.3856
    14.3943  14.5768

          k = 0.1424 0.2466 0.1313 (  2027 PWs)   bands (ev):

   -38.8952 -11.6556  -7.5155  -7.3758  -4.3487  -4.2385  -1.3350  -1.0919
     0.3565   2.4266   3.3127   4.8793   5.0215   9.2962   9.3142  10.8528
    14.8115  14.9203

          k = 0.1424 0.2466 0.2626 (  2013 PWs)   bands (ev):

   -38.8947 -11.6214  -7.4832  -7.3319  -4.3130  -4.2186  -1.3260  -1.0736
    -0.0233   2.4391   3.3207   4.4823   4.5896   8.8977   9.0136  12.0657
    15.1961  15.8549

          k = 0.1424 0.2466 0.3939 (  2011 PWs)   bands (ev):

   -38.8940 -11.5819  -7.4454  -7.2808  -4.2717  -4.1951  -1.3136  -1.0526
    -0.4154   2.4531   3.3300   4.0846   4.1531   8.4972   8.7098  13.6999
    15.2472  16.3973

          k = 0.1424 0.2466 0.5252 (  2009 PWs)   bands (ev):

   -38.8936 -11.5556  -7.4201  -7.2467  -4.2442  -4.1792  -1.3036  -1.0387
    -0.6544   2.4623   3.3363   3.8470   3.8915   8.2582   8.5258  15.1952
    15.3041  16.3112

          k = 0.1424 0.4110-0.0000 (  2027 PWs)   bands (ev):

   -38.8954 -11.0464  -8.9078  -7.8824  -4.6045  -2.8218  -0.0474   0.3389
     0.7085   1.2353   2.4116   3.6587   4.6304   9.7487  10.8982  11.2009
    13.2514  14.1613

          k = 0.1424 0.4110 0.1313 (  2012 PWs)   bands (ev):

   -38.8952 -11.0332  -8.8937  -7.8669  -4.5944  -2.8121  -0.0423   0.3441
     0.7134   1.0758   2.4157   3.4780   4.4451   9.5894  11.0481  11.3895
    13.6767  14.5101

          k = 0.1424 0.4110 0.2626 (  2016 PWs)   bands (ev):

   -38.8946 -10.9995  -8.8572  -7.8268  -4.5682  -2.7871  -0.0291   0.3573
     0.6710   0.7534   2.4255   3.0676   4.0215   9.2352  10.7395  12.6179
    14.7892  14.8033

          k = 0.1424 0.4110 0.3939 (  2010 PWs)   bands (ev):

   -38.8939 -10.9607  -8.8145  -7.7799  -4.5375  -2.7578  -0.0129   0.2944
     0.3726   0.7530   2.4366   2.6581   3.5981   8.8793  10.4251  14.2341
    14.6097  15.0580

          k = 0.1424 0.4110 0.5252 (  2012 PWs)   bands (ev):

   -38.8935 -10.9351  -8.7859  -7.7486  -4.5169  -2.7381  -0.0014   0.0542
     0.3826   0.7638   2.4130   2.4445   3.3463   8.6656  10.2374  14.4651
    15.0447  15.2997

          k = 0.1424 0.5754-0.0000 (  2012 PWs)   bands (ev):

   -38.8954 -10.1945 -10.0419  -8.0280  -4.7183  -1.1284  -1.1044   0.9520
     1.2579   1.2677   2.0959   2.5267   4.4508   9.8131  11.3541  12.5303
    13.1628  13.1727

          k = 0.1424 0.5754 0.1313 (  2015 PWs)   bands (ev):

   -38.8951 -10.1872 -10.0218  -8.0125  -4.7084  -1.1189  -1.0971   0.9569
     1.2603   1.2723   1.9748   2.3064   4.2654   9.6545  11.8315  12.9524
    13.0470  13.0590

          k = 0.1424 0.5754 0.2626 (  2015 PWs)   bands (ev):

   -38.8946 -10.1686  -9.9699  -7.9726  -4.6827  -1.0948  -1.0780   0.9695
     1.2664   1.2838   1.6844   1.8075   3.8417   9.2989  12.7423  12.7850
    13.1054  14.0927

          k = 0.1424 0.5754 0.3939 (  2025 PWs)   bands (ev):

   -38.8939 -10.1474  -9.9093  -7.9259  -4.6526  -1.0669  -1.0553   0.9837
     1.2695   1.2815   1.3285   1.3812   3.4182   8.9468  12.4689  12.5232
    14.1923  14.6832

          k = 0.1424 0.5754 0.5252 (  2027 PWs)   bands (ev):

   -38.8935 -10.1335  -9.8687  -7.8946  -4.6323  -1.0484  -1.0398   0.9910
     1.0182   1.1755   1.2899   1.3094   3.1663   8.7379  12.2931  12.3667
    14.2069  15.4736

          k = 0.2848 0.4932-0.0000 (  2017 PWs)   bands (ev):

   -38.8954 -10.2798  -9.2680  -9.1287  -3.0124  -2.9200  -1.1335   1.0851
     1.2187   1.8755   2.0797   3.2138   3.4761  11.4111  11.4963  11.5110
    12.4432  13.3703

          k = 0.2848 0.4932 0.1313 (  2010 PWs)   bands (ev):

   -38.8951 -10.2675  -9.2568  -9.1096  -3.0001  -2.9131  -1.1254   1.0898
     1.2227   1.8794   1.9301   3.0427   3.2675  11.2937  11.3239  11.9922
    12.8966  13.2532

          k = 0.2848 0.4932 0.2626 (  2005 PWs)   bands (ev):

   -38.8946 -10.2364  -9.2274  -9.0607  -2.9685  -2.8953  -1.1044   1.1020
     1.2329   1.5622   1.8893   2.6690   2.7917  10.9300  11.0465  12.9675
    13.2250  14.0303

          k = 0.2848 0.4932 0.3939 (  2013 PWs)   bands (ev):

   -38.8939 -10.2014  -9.1920  -9.0036  -2.9320  -2.8742  -1.0796   1.1157
     1.1648   1.2445   1.9007   2.3138   2.3166  10.5350  10.7908  12.7055
    14.4641  14.5755

          k = 0.2848 0.4932 0.5252 (  2012 PWs)   bands (ev):

   -38.8935 -10.1786  -9.1678  -8.9654  -2.9077  -2.8598  -1.0627   0.9150
     1.1271   1.2522   1.9088   2.0334   2.1082  10.2996  10.6347  12.5433
    14.4268  14.8164

     the Fermi energy is     8.5847 ev

!    total energy              =    -124.93044507 Ry
     estimated scf accuracy    <          7.7E-09 Ry
     smearing contrib. (-TS)   =      -0.00086466 Ry
     internal energy E=F+TS    =    -124.92958041 Ry

     The total energy is F=E-TS. E is the sum of the following terms:
     one-electron contribution =     -22.41410433 Ry
     hartree contribution      =      23.73011594 Ry
[...]
        k(   10) = (  -0.0000000   0.1643982   0.5263106), wk =   0.0544218
        k(   11) = (  -0.0000000   0.3287964  -0.0000000), wk =   0.0272109
        k(   12) = (  -0.0000000   0.3287964   0.1315776), wk =   0.0544218
        k(   13) = (  -0.0000000   0.3287964   0.2631553), wk =   0.0544218
        k(   14) = (  -0.0000000   0.3287964   0.3947329), wk =   0.0544218
        k(   15) = (  -0.0000000   0.3287964   0.5263106), wk =   0.0544218
        k(   16) = (  -0.0000000   0.4931946  -0.0000000), wk =   0.0272109
        k(   17) = (  -0.0000000   0.4931946   0.1315776), wk =   0.0544218
        k(   18) = (  -0.0000000   0.4931946   0.2631553), wk =   0.0544218
        k(   19) = (  -0.0000000   0.4931946   0.3947329), wk =   0.0544218
        k(   20) = (  -0.0000000   0.4931946   0.5263106), wk =   0.0544218
        k(   21) = (   0.1423730   0.2465973  -0.0000000), wk =   0.0272109
        k(   22) = (   0.1423730   0.2465973   0.1315776), wk =   0.0544218
        k(   23) = (   0.1423730   0.2465973   0.2631553), wk =   0.0544218
        k(   24) = (   0.1423730   0.2465973   0.3947329), wk =   0.0544218
        k(   25) = (   0.1423730   0.2465973   0.5263106), wk =   0.0544218
        k(   26) = (   0.1423730   0.4109955  -0.0000000), wk =   0.0544218
        k(   27) = (   0.1423730   0.4109955   0.1315776), wk =   0.1088435
        k(   28) = (   0.1423730   0.4109955   0.2631553), wk =   0.1088435
        k(   29) = (   0.1423730   0.4109955   0.3947329), wk =   0.1088435
        k(   30) = (   0.1423730   0.4109955   0.5263106), wk =   0.1088435
        k(   31) = (   0.1423730   0.5753937  -0.0000000), wk =   0.0272109
        k(   32) = (   0.1423730   0.5753937   0.1315776), wk =   0.0544218
        k(   33) = (   0.1423730   0.5753937   0.2631553), wk =   0.0544218
        k(   34) = (   0.1423730   0.5753937   0.3947329), wk =   0.0544218
        k(   35) = (   0.1423730   0.5753937   0.5263106), wk =   0.0544218
        k(   36) = (   0.2847461   0.4931946  -0.0000000), wk =   0.0272109
        k(   37) = (   0.2847461   0.4931946   0.1315776), wk =   0.0544218
        k(   38) = (   0.2847461   0.4931946   0.2631553), wk =   0.0544218
        k(   39) = (   0.2847461   0.4931946   0.3947329), wk =   0.0544218
        k(   40) = (   0.2847461   0.4931946   0.5263106), wk =   0.0544218

     Dense  grid:    45935 G-vectors     FFT dimensions: (  50,  50,  45)

     Smooth grid:    16247 G-vectors     FFT dimensions: (  36,  36,  30)

     Estimated max dynamical RAM per process >      28.06 MB

     Estimated total dynamical RAM >     112.25 MB

     Check: negative core charge=   -0.000011

     Initial potential from superposition of free atoms

     starting charge   26.54901, renormalised to   27.00000
     Starting wfcs are   29 randomized atomic wfcs
     Checking if some PAW data can be deallocated... 

     total cpu time spent up to now is      274.4 secs

     Self-consistent Calculation

     iteration #  1     ecut=    45.00 Ry     beta= 0.70
     Davidson diagonalization with overlap
     c_bands:  1 eigenvalues not converged
     c_bands:  2 eigenvalues not converged
     c_bands:  2 eigenvalues not converged
     c_bands:  2 eigenvalues not converged
     c_bands:  2 eigenvalues not converged
     c_bands:  1 eigenvalues not converged
     c_bands:  1 eigenvalues not converged
     c_bands:  1 eigenvalues not converged
     c_bands:  1 eigenvalues not converged
     c_bands:  1 eigenvalues not converged
     c_bands:  2 eigenvalues not converged
     c_bands:  1 eigenvalues not converged
     c_bands:  1 eigenvalues not converged
     c_bands:  1 eigenvalues not converged
     c_bands:  2 eigenvalues not converged
     c_bands:  3 eigenvalues not converged
     c_bands:  2 eigenvalues not converged
     c_bands:  1 eigenvalues not converged
     c_bands:  1 eigenvalues not converged
     c_bands:  1 eigenvalues not converged
     c_bands:  1 eigenvalues not converged
     c_bands:  2 eigenvalues not converged
     c_bands:  2 eigenvalues not converged
     c_bands:  2 eigenvalues not converged
     c_bands:  2 eigenvalues not converged
     ethr =  1.00E-06,  avg # of iterations = 18.2

     total cpu time spent up to now is      285.9 secs

     total energy              =    -124.84009038 Ry
     estimated scf accuracy    <       0.46147503 Ry

     iteration #  2     ecut=    45.00 Ry     beta= 0.70
     Davidson diagonalization with overlap
     ethr =  1.71E-03,  avg # of iterations =  2.5

     total cpu time spent up to now is      288.8 secs

     total energy              =    -124.92861978 Ry
     estimated scf accuracy    <       0.01498722 Ry

     iteration #  3     ecut=    45.00 Ry     beta= 0.70
     Davidson diagonalization with overlap
     ethr =  5.55E-05,  avg # of iterations =  6.2

     total cpu time spent up to now is      292.1 secs

     total energy              =    -124.93033277 Ry
     estimated scf accuracy    <       0.00090648 Ry

     iteration #  4     ecut=    45.00 Ry     beta= 0.70
     Davidson diagonalization with overlap
     ethr =  3.36E-06,  avg # of iterations =  5.2

     total cpu time spent up to now is      295.3 secs

     total energy              =    -124.93044500 Ry
     estimated scf accuracy    <       0.00004074 Ry

     iteration #  5     ecut=    45.00 Ry     beta= 0.70
     Davidson diagonalization with overlap
     ethr =  1.51E-07,  avg # of iterations =  3.3

     total cpu time spent up to now is      298.2 secs

     total energy              =    -124.93045512 Ry
     estimated scf accuracy    <       0.00000096 Ry

     iteration #  6     ecut=    45.00 Ry     beta= 0.70
     Davidson diagonalization with overlap
     ethr =  3.54E-09,  avg # of iterations =  4.7

     total cpu time spent up to now is      301.7 secs

     total energy              =    -124.93045598 Ry
     estimated scf accuracy    <       0.00000023 Ry

     iteration #  7     ecut=    45.00 Ry     beta= 0.70
     Davidson diagonalization with overlap
     ethr =  8.39E-10,  avg # of iterations =  2.0

     total cpu time spent up to now is      304.5 secs

     End of self-consistent calculation

          k = 0.0000 0.0000 0.0000 (  2013 PWs)   bands (ev):

   -38.8651 -12.1221  -5.5007  -5.5007  -5.1881  -5.1881  -3.2901  -3.0153
    -0.0051   4.1899   4.1899   7.2069   7.2069   7.5484   7.5484  10.0318
    14.9545  14.9546

          k = 0.0000 0.0000 0.1316 (  2037 PWs)   bands (ev):

   -38.8648 -12.1085  -5.4832  -5.4832  -5.1749  -5.1749  -3.2964  -3.0059
    -0.1673   4.1923   4.1923   7.0029   7.0029   7.4132   7.4132  10.4613
    15.0765  15.0765

          k = 0.0000 0.0000 0.2632 (  2019 PWs)   bands (ev):

   -38.8642 -12.0737  -5.4381  -5.4381  -5.1409  -5.1409  -3.3113  -2.9820
    -0.5475   4.1986   4.1986   6.5399   6.5399   7.0921   7.0921  11.6247
    15.2095  15.2095

          k = 0.0000 0.0000 0.3947 (  2013 PWs)   bands (ev):

   -38.8636 -12.0334  -5.3856  -5.3856  -5.1016  -5.1016  -3.3254  -2.9546
    -0.9398   4.2057   4.2057   6.0802   6.0802   6.7573   6.7574  13.2250
    15.2786  15.2786

          k = 0.0000 0.0000 0.5263 (  2012 PWs)   bands (ev):

   -38.8631 -12.0066  -5.3506  -5.3506  -5.0755  -5.0755  -3.3326  -2.9365
    -1.1788   4.2104   4.2104   5.8078   5.8078   6.5528   6.5529  14.7133
    15.3115  15.3115

          k =-0.0000 0.1644-0.0000 (  2037 PWs)   bands (ev):

   -38.8650 -11.9651  -6.7628  -6.1788  -5.1711  -4.2467  -2.5528  -2.1411
     0.1794   3.5657   3.8488   5.9117   6.2604   8.4062   8.8270  10.1636
    14.8743  15.1062

          k =-0.0000 0.1644 0.1316 (  2033 PWs)   bands (ev):

   -38.8648 -11.9515  -6.7479  -6.1617  -5.1605  -4.2333  -2.5523  -2.1335
     0.0167   3.5691   3.8516   5.7301   6.0794   8.2449   8.6719  10.6098
    15.1017  15.4307

          k =-0.0000 0.1644 0.2632 (  2034 PWs)   bands (ev):

   -38.8642 -11.9167  -6.7098  -6.1177  -5.1333  -4.1990  -2.5501  -2.1140
    -0.3649   3.5778   3.8587   5.3133   5.6594   7.8788   8.3150  11.7984
    15.2871  15.7892

          k =-0.0000 0.1644 0.3947 (  2027 PWs)   bands (ev):

   -38.8635 -11.8764  -6.6653  -6.0664  -5.1018  -4.1593  -2.5452  -2.0910
    -0.7586   3.5878   3.8670   4.8934   5.2329   7.5094   7.9541  13.4197
    15.3569  15.8851

          k =-0.0000 0.1644 0.5263 (  2012 PWs)   bands (ev):

   -38.8631 -11.8496  -6.6356  -6.0323  -5.0808  -4.1330  -2.5402  -2.0755
    -0.9985   3.5944   3.8724   4.6420   4.9767   7.2875   7.7374  14.9357
    15.3939  15.9214

          k =-0.0000 0.3288-0.0000 (  2029 PWs)   bands (ev):

   -38.8650 -11.4957  -8.2997  -6.7235  -5.5763  -2.9187  -1.3051  -0.4910
     0.7268   2.0950   2.9138   4.3384   5.5174   8.8808  10.5478  10.5574
    13.9277  15.6593

          k =-0.0000 0.3288 0.1316 (  2031 PWs)   bands (ev):

   -38.8647 -11.4822  -8.2853  -6.7055  -5.5680  -2.9072  -1.3012  -0.4852
     0.5630   2.1003   2.9177   4.1552   5.3347   8.7139  10.4037  11.0299
    14.3288  15.6676

          k =-0.0000 0.3288 0.2632 (  2034 PWs)   bands (ev):

   -38.8641 -11.4475  -8.2480  -6.6593  -5.5467  -2.8775  -1.2904  -0.4702
     0.1782   2.1140   2.9274   3.7386   4.9113   8.3472  10.0723  12.2610
    15.3529  15.7082

          k =-0.0000 0.3288 0.3947 (  2019 PWs)   bands (ev):

   -38.8635 -11.4074  -8.2043  -6.6054  -5.5216  -2.8432  -1.2762  -0.4528
    -0.2189   2.1298   2.9381   3.3227   4.4815   7.9845   9.7365  13.9090
    15.6687  15.9521

          k =-0.0000 0.3288 0.5263 (  2010 PWs)   bands (ev):

   -38.8630 -11.3808  -8.1750  -6.5694  -5.5047  -2.8205  -1.2655  -0.4625
    -0.4393   2.1402   2.9452   3.0747   4.2233   7.7685   9.5344  15.4250
    15.6878  15.8519

          k =-0.0000 0.4932-0.0000 (  2025 PWs)   bands (ev):

   -38.8649 -10.7218  -9.6385  -6.9981  -5.8271  -1.3659   0.1147   0.3500
     0.7201   1.6037   1.6044   2.8972   5.1415   9.0246  11.1164  12.4848
    12.8641  14.2539

          k =-0.0000 0.4932 0.1316 (  2028 PWs)   bands (ev):

   -38.8647 -10.7088  -9.6235  -6.9796  -5.8197  -1.3563   0.1195   0.3575
     0.7247   1.4390   1.6161   2.7067   4.9575   8.8568  11.5995  12.3570
    13.2811  14.2869

          k =-0.0000 0.4932 0.2632 (  2024 PWs)   bands (ev):

   -38.8641 -10.6757  -9.5845  -6.9321  -5.8002  -1.3317   0.1323   0.3766
     0.7365   1.0626   1.6246   2.2827   4.5311   8.4879  12.0672  12.8568
    14.1582  14.3208

          k =-0.0000 0.4932 0.3947 (  2019 PWs)   bands (ev):

   -38.8634 -10.6378  -9.5385  -6.8767  -5.7772  -1.3035   0.1487   0.3986
     0.6619   0.7517   1.6345   1.8704   4.0984   8.1294  11.7735  13.9255
    14.3807  14.5034

          k =-0.0000 0.4932 0.5263 (  2034 PWs)   bands (ev):

   -38.8630 -10.6131  -9.5073  -6.8397  -5.7617  -1.2848   0.1611   0.4131
     0.4160   0.7600   1.6275   1.6418   3.8383   7.9190  11.5960  13.7827
    14.4050  15.9139

          k = 0.1424 0.2466-0.0000 (  2033 PWs)   bands (ev):

   -38.8650 -11.6519  -7.5115  -7.3763  -4.3460  -4.2290  -1.3217  -1.0813
     0.5455   2.4389   3.3270   5.0790   5.2343   9.4775   9.4945  10.4279
    14.4307  14.6121

          k = 0.1424 0.2466 0.1316 (  2031 PWs)   bands (ev):

   -38.8648 -11.6383  -7.4988  -7.3589  -4.3319  -4.2212  -1.3184  -1.0739
     0.3818   2.4439   3.3302   4.9028   5.0450   9.3188   9.3371  10.8981
    14.8506  14.9524

          k = 0.1424 0.2466 0.2632 (  2018 PWs)   bands (ev):

   -38.8642 -11.6035  -7.4659  -7.3142  -4.2956  -4.2009  -1.3092  -1.0553
    -0.0021   2.4567   3.3384   4.5014   4.6084   8.9161   9.0327  12.1182
    15.2134  16.1328

          k = 0.1424 0.2466 0.3947 (  2021 PWs)   bands (ev):

   -38.8635 -11.5633  -7.4274  -7.2622  -4.2535  -4.1769  -1.2965  -1.0338
    -0.3982   2.4710   3.3478   4.0996   4.1675   8.5115   8.7254  13.7604
    15.2646  16.4133

          k = 0.1424 0.2466 0.5263 (  2021 PWs)   bands (ev):

   -38.8631 -11.5366  -7.4016  -7.2276  -4.2256  -4.1608  -1.2862  -1.0197
    -0.6398   2.4804   3.3542   3.8596   3.9033   8.2702   8.5393  15.2386
    15.3438  16.3257

          k = 0.1424 0.4110-0.0000 (  2025 PWs)   bands (ev):

   -38.8649 -11.0294  -8.8911  -7.8658  -4.5876  -2.8050  -0.0306   0.3565
     0.7257   1.2623   2.4290   3.6849   4.6561   9.7739  10.9391  11.2247
    13.2902  14.1956

          k = 0.1424 0.4110 0.1316 (  2026 PWs)   bands (ev):

   -38.8647 -11.0160  -8.8767  -7.8500  -4.5773  -2.7951  -0.0255   0.3618
     0.7307   1.1009   2.4331   3.5022   4.4687   9.6128  11.0710  11.4328
    13.7183  14.5429

          k = 0.1424 0.4110 0.2632 (  2023 PWs)   bands (ev):

   -38.8641 -10.9817  -8.8396  -7.8093  -4.5506  -2.7695  -0.0119   0.3753
     0.6907   0.7724   2.4432   3.0874   4.0406   9.2546  10.7581  12.6693
    14.8211  14.8380

          k = 0.1424 0.4110 0.3947 (  2010 PWs)   bands (ev):

   -38.8634 -10.9422  -8.7962  -7.7616  -4.5193  -2.7397   0.0046   0.3110
     0.3908   0.7710   2.4545   2.6737   3.6129   8.8949  10.4402  14.2917
    14.6262  15.0761

          k = 0.1424 0.4110 0.5263 (  2022 PWs)   bands (ev):

   -38.8630 -10.9162  -8.7671  -7.7296  -4.4984  -2.7197   0.0163   0.0684
     0.4011   0.7820   2.4262   2.4625   3.3586   8.6790  10.2504  14.4790
    15.0627  15.3193

          k = 0.1424 0.5754-0.0000 (  2024 PWs)   bands (ev):

   -38.8649 -10.1774 -10.0253  -8.0114  -4.7014  -1.1111  -1.0878   0.9687
     1.2750   1.2858   2.1222   2.5537   4.4765   9.8386  11.3937  12.5707
    13.1859  13.1955

          k = 0.1424 0.5754 0.1316 (  2023 PWs)   bands (ev):

   -38.8647 -10.1699 -10.0048  -7.9957  -4.6913  -1.1015  -1.0803   0.9738
     1.2774   1.2905   1.9997   2.3310   4.2890   9.6781  11.8743  12.9934
    13.0687  13.0825

          k = 0.1424 0.5754 0.2632 (  2021 PWs)   bands (ev):

   -38.8641 -10.1510  -9.9521  -7.9551  -4.6651  -1.0769  -1.0608   0.9866
     1.2837   1.3023   1.7058   1.8271   3.8608   9.3186  12.7623  12.8033
    13.1536  14.1539

          k = 0.1424 0.5754 0.3947 (  2029 PWs)   bands (ev):

   -38.8634 -10.1293  -9.8904  -7.9075  -4.6344  -1.0485  -1.0377   1.0010
     1.2868   1.2984   1.3452   1.3991   3.4330   8.9628  12.4840  12.5383
    14.2097  14.7393

          k = 0.1424 0.5754 0.5263 (  2035 PWs)   bands (ev):

   -38.8630 -10.1152  -9.8492  -7.8757  -4.6138  -1.0296  -1.0219   1.0073
     1.0316   1.1910   1.3076   1.3283   3.1786   8.7518  12.3061  12.3800
    14.2249  15.4912

          k = 0.2847 0.4932-0.0000 (  2019 PWs)   bands (ev):

   -38.8649 -10.2629  -9.2512  -9.1120  -2.9957  -2.9029  -1.1165   1.1018
     1.2366   1.8930   2.1063   3.2401   3.5026  11.4353  11.5207  11.5505
    12.4814  13.3934

          k = 0.2847 0.4932 0.1316 (  2018 PWs)   bands (ev):

   -38.8646 -10.2503  -9.2398  -9.0927  -2.9831  -2.8960  -1.1083   1.1065
     1.2407   1.8969   1.9549   3.0671   3.2917  11.3167  11.3464  12.0345
    12.9374  13.2751

          k = 0.2847 0.4932 0.2632 (  2018 PWs)   bands (ev):

   -38.8641 -10.2187  -9.2098  -9.0429  -2.9510  -2.8778  -1.0869   1.1189
     1.2511   1.5829   1.9071   2.6893   2.8110  10.9484  11.0660  12.9874
    13.2723  14.0733

          k = 0.2847 0.4932 0.3947 (  2023 PWs)   bands (ev):

   -38.8634 -10.1830  -9.1738  -8.9848  -2.9138  -2.8562  -1.0616   1.1329
     1.1811   1.2630   1.9187   2.3305   2.3312  10.5495  10.8070  12.7208
    14.4816  14.6090

          k = 0.2847 0.4932 0.5263 (  2020 PWs)   bands (ev):

   -38.8630 -10.1599  -9.1491  -8.9460  -2.8891  -2.8415  -1.0444   0.9286
     1.1446   1.2708   1.9270   2.0454   2.1229  10.3118  10.6489  12.5567
    14.4444  14.8238

     the Fermi energy is     8.6015 ev

!    total energy              =    -124.93045602 Ry
     estimated scf accuracy    <          1.4E-09 Ry
     smearing contrib. (-TS)   =      -0.00086064 Ry
     internal energy E=F+TS    =    -124.92959538 Ry

     The total energy is F=E-TS. E is the sum of the following terms:
     one-electron contribution =     -22.17029490 Ry
     hartree contribution      =      23.62820205 Ry
     xc contribution           =     -31.55975056 Ry
     ewald contribution        =     -58.18668417 Ry
     one-center paw contrib.   =     -36.64106779 Ry

     convergence has been achieved in   7 iterations

     Forces acting on atoms (cartesian axes, Ry/au):

     atom    1 type  1   force =    -0.00000000    0.00000000   -0.00000000
     atom    2 type  2   force =    -0.00002530    0.00004382   -0.00000000
     atom    3 type  2   force =    -0.00002530   -0.00004382   -0.00000000
     atom    4 type  2   force =     0.00005060   -0.00000000    0.00000000
     atom    5 type  2   force =     0.00002530   -0.00004382    0.00000000
     atom    6 type  2   force =     0.00002530    0.00004382    0.00000000
     atom    7 type  2   force =    -0.00005060    0.00000000    0.00000000

     Total force =     0.000124     Total SCF correction =     0.000044
     SCF correction compared to forces is large: reduce conv_thr to get better values


     Computing stress (Cartesian axis) and pressure

          total   stress  (Ry/bohr**3)                   (kbar)     P=        0.31
   0.00000279  -0.00000000  -0.00000000            0.41       -0.00       -0.00
  -0.00000000   0.00000279  -0.00000000           -0.00        0.41       -0.00
  -0.00000000   0.00000000   0.00000066           -0.00        0.00        0.10


     Writing output data file ./LiC6.save/

     init_run     :     81.65s CPU     81.79s WALL (       2 calls)
     electrons    :    166.19s CPU    173.00s WALL (      10 calls)
     update_pot   :     13.90s CPU     14.00s WALL (       8 calls)
     forces       :     12.89s CPU     13.00s WALL (      10 calls)
     stress       :     24.43s CPU     24.65s WALL (      10 calls)

     Called by init_run:
     wfcinit      :      2.12s CPU      2.23s WALL (       2 calls)
     potinit      :     77.58s CPU     77.59s WALL (       2 calls)
     hinit0       :      1.76s CPU      1.77s WALL (       2 calls)

     Called by electrons:
     c_bands      :    132.98s CPU    138.29s WALL (      58 calls)
     sum_band     :     15.90s CPU     16.69s WALL (      58 calls)
     v_of_rho     :     90.00s CPU     90.55s WALL (      62 calls)
     newd         :      1.52s CPU      1.61s WALL (      62 calls)
     PAW_pot      :      5.57s CPU      5.71s WALL (      70 calls)
     mix_rho      :      0.13s CPU      0.13s WALL (      58 calls)
     vdW_kernel   :     76.13s CPU     76.13s WALL (       1 calls)

     Called by c_bands:
     init_us_2    :      1.60s CPU      1.66s WALL (    5840 calls)
     cegterg      :    129.45s CPU    134.67s WALL (    2320 calls)

     Called by *egterg:
     cdiaghg      :     11.30s CPU     11.61s WALL (    9237 calls)
     h_psi        :     75.89s CPU     79.62s WALL (    9877 calls)
     s_psi        :      9.15s CPU      9.58s WALL (    9877 calls)
     g_psi        :      0.76s CPU      0.77s WALL (    7477 calls)

     Called by h_psi:
     h_psi:calbec :     11.46s CPU     12.21s WALL (    9877 calls)
     vloc_psi     :     55.07s CPU     57.52s WALL (    9877 calls)
     add_vuspsi   :      9.09s CPU      9.61s WALL (    9877 calls)

     General routines
     calbec       :     20.14s CPU     21.17s WALL (   14517 calls)
     fft          :      6.41s CPU      6.62s WALL (    5590 calls)
     ffts         :      0.04s CPU      0.04s WALL (     120 calls)
     fftw         :     59.17s CPU     61.89s WALL (  278600 calls)
     interpolate  :      0.09s CPU      0.09s WALL (      62 calls)

     Parallel routines
     fft_scatt_xy :      5.29s CPU      5.52s WALL (  284310 calls)
     fft_scatt_yz :     22.13s CPU     23.14s WALL (  284310 calls)

     PWSCF        :   5m 0.94s CPU   5m 8.39s WALL


   This run was terminated on:  14:54:31  17Jun2023            

=------------------------------------------------------------------------------=
   JOB DONE.
=------------------------------------------------------------------------------=
